Created with astools

              234 atoms
		0 bonds
		0 angles
		0 dihedrals
		0 impropers

                2 atom types
		0 bond types
		0 angle types
		0 dihedral types
		0 improper types

	        0.00000000	       16.26000000	xlo xhi
	        0.00000000	       16.26000000	ylo yhi
	        0.00000000	       19.00000000	zlo zhi

Atoms

     1	     1	 0.0000      0.67790000	      0.67790000	      0.67790000	
     2	     1	 0.0000      3.38790000	      3.38790000	      0.67790000	
     3	     1	 0.0000      2.03290000	      4.74290000	      2.03290000	
     4	     1	 0.0000      4.74290000	      2.03290000	      2.03290000	
     5	     1	 0.0000      0.67790000	      3.38790000	      3.38790000	
     6	     1	 0.0000      3.38790000	      0.67790000	      3.38790000	
     7	     1	 0.0000      2.03290000	      2.03290000	      4.74290000	
     8	     1	 0.0000      4.74290000	      4.74290000	      4.74290000	
     9	     1	 2.0000      1.44117800	      1.80648600	      7.78348970	
    10	     1	 2.0000      4.15117800	      1.80648600	     12.03976970	
    11	     1	 2.0000      1.44117800	      3.61351400	     11.76907030	
    12	     1	 2.0000      4.15117800	      3.61351400	      7.51279030	
    13	     1	 2.0000      5.24764400	      0.00000000	      9.77628000	
    14	     1	 2.0000      2.53764400	      0.00000000	     14.03256000	
    15	     2	-1.0000      0.86936800	      1.15500200	      9.15060684	
    16	     2	-1.0000      3.03249000	      2.96148800	     11.53412364	
    17	     2	-1.0000      0.32249000	      2.96148800	      7.27869490	
    18	     2	-1.0000      1.51760000	      4.76851600	     12.90038952	
    19	     2	-1.0000      0.32249000	      2.45851200	     12.27471636	
    20	     2	-1.0000      4.22760000	      0.65148400	     10.90845048	
    21	     2	-1.0000      1.51760000	      0.65148400	      6.65217048	
    22	     2	-1.0000      0.86936800	      4.26499800	     10.40195316	
    23	     2	-1.0000      3.57936800	      4.26499800	      6.14567316	
    24	     2	-1.0000      3.52842000	      1.10839000	     13.33027380	
    25	     2	-1.0000      4.32678600	      4.72190400	      8.64240701	
    26	     2	-1.0000      2.98479400	      2.50512400	      7.93926955	
    27	     1	 0.0000      0.67790000	      6.09790000	      0.67790000	
    28	     1	 0.0000      3.38790000	      8.80790000	      0.67790000	
    29	     1	 0.0000      2.03290000	     10.16290000	      2.03290000	
    30	     1	 0.0000      4.74290000	      7.45290000	      2.03290000	
    31	     1	 0.0000      0.67790000	      8.80790000	      3.38790000	
    32	     1	 0.0000      3.38790000	      6.09790000	      3.38790000	
    33	     1	 0.0000      2.03290000	      7.45290000	      4.74290000	
    34	     1	 0.0000      4.74290000	     10.16290000	      4.74290000	
    35	     1	 2.0000      1.44117800	      7.22648600	      7.78348970	
    36	     1	 2.0000      4.15117800	      7.22648600	     12.03976970	
    37	     1	 2.0000      1.44117800	      9.03351400	     11.76907030	
    38	     1	 2.0000      4.15117800	      9.03351400	      7.51279030	
    39	     1	 2.0000      5.24764400	      5.42000000	      9.77628000	
    40	     1	 2.0000      2.53764400	      5.42000000	     14.03256000	
    41	     2	-1.0000      0.86936800	      6.57500200	      9.15060684	
    42	     2	-1.0000      3.03249000	      8.38148800	     11.53412364	
    43	     2	-1.0000      0.32249000	      8.38148800	      7.27869490	
    44	     2	-1.0000      1.51760000	     10.18851600	     12.90038952	
    45	     2	-1.0000      0.32249000	      7.87851200	     12.27471636	
    46	     2	-1.0000      4.22760000	      6.07148400	     10.90845048	
    47	     2	-1.0000      1.51760000	      6.07148400	      6.65217048	
    48	     2	-1.0000      0.86936800	      9.68499800	     10.40195316	
    49	     2	-1.0000      3.57936800	      9.68499800	      6.14567316	
    50	     2	-1.0000      3.52842000	      6.52839000	     13.33027380	
    51	     2	-1.0000      4.32678600	     10.14190400	      8.64240701	
    52	     2	-1.0000      2.98479400	      7.92512400	      7.93926955	
    53	     1	 0.0000      0.67790000	     11.51790000	      0.67790000	
    54	     1	 0.0000      3.38790000	     14.22790000	      0.67790000	
    55	     1	 0.0000      2.03290000	     15.58290000	      2.03290000	
    56	     1	 0.0000      4.74290000	     12.87290000	      2.03290000	
    57	     1	 0.0000      0.67790000	     14.22790000	      3.38790000	
    58	     1	 0.0000      3.38790000	     11.51790000	      3.38790000	
    59	     1	 0.0000      2.03290000	     12.87290000	      4.74290000	
    60	     1	 0.0000      4.74290000	     15.58290000	      4.74290000	
    61	     1	 2.0000      1.44117800	     12.64648600	      7.78348970	
    62	     1	 2.0000      4.15117800	     12.64648600	     12.03976970	
    63	     1	 2.0000      1.44117800	     14.45351400	     11.76907030	
    64	     1	 2.0000      4.15117800	     14.45351400	      7.51279030	
    65	     1	 2.0000      5.24764400	     10.84000000	      9.77628000	
    66	     1	 2.0000      2.53764400	     10.84000000	     14.03256000	
    67	     2	-1.0000      0.86936800	     11.99500200	      9.15060684	
    68	     2	-1.0000      3.03249000	     13.80148800	     11.53412364	
    69	     2	-1.0000      0.32249000	     13.80148800	      7.27869490	
    70	     2	-1.0000      1.51760000	     15.60851600	     12.90038952	
    71	     2	-1.0000      0.32249000	     13.29851200	     12.27471636	
    72	     2	-1.0000      4.22760000	     11.49148400	     10.90845048	
    73	     2	-1.0000      1.51760000	     11.49148400	      6.65217048	
    74	     2	-1.0000      0.86936800	     15.10499800	     10.40195316	
    75	     2	-1.0000      3.57936800	     15.10499800	      6.14567316	
    76	     2	-1.0000      3.52842000	     11.94839000	     13.33027380	
    77	     2	-1.0000      4.32678600	     15.56190400	      8.64240701	
    78	     2	-1.0000      2.98479400	     13.34512400	      7.93926955	
    79	     1	 0.0000      6.09790000	      0.67790000	      0.67790000	
    80	     1	 0.0000      8.80790000	      3.38790000	      0.67790000	
    81	     1	 0.0000      7.45290000	      4.74290000	      2.03290000	
    82	     1	 0.0000     10.16290000	      2.03290000	      2.03290000	
    83	     1	 0.0000      6.09790000	      3.38790000	      3.38790000	
    84	     1	 0.0000      8.80790000	      0.67790000	      3.38790000	
    85	     1	 0.0000      7.45290000	      2.03290000	      4.74290000	
    86	     1	 0.0000     10.16290000	      4.74290000	      4.74290000	
    87	     1	 2.0000      6.86117800	      1.80648600	      7.78348970	
    88	     1	 2.0000      9.57117800	      1.80648600	     12.03976970	
    89	     1	 2.0000      6.86117800	      3.61351400	     11.76907030	
    90	     1	 2.0000      9.57117800	      3.61351400	      7.51279030	
    91	     1	 2.0000     10.66764400	      0.00000000	      9.77628000	
    92	     1	 2.0000      7.95764400	      0.00000000	     14.03256000	
    93	     2	-1.0000      6.28936800	      1.15500200	      9.15060684	
    94	     2	-1.0000      8.45249000	      2.96148800	     11.53412364	
    95	     2	-1.0000      5.74249000	      2.96148800	      7.27869490	
    96	     2	-1.0000      6.93760000	      4.76851600	     12.90038952	
    97	     2	-1.0000      5.74249000	      2.45851200	     12.27471636	
    98	     2	-1.0000      9.64760000	      0.65148400	     10.90845048	
    99	     2	-1.0000      6.93760000	      0.65148400	      6.65217048	
   100	     2	-1.0000      6.28936800	      4.26499800	     10.40195316	
   101	     2	-1.0000      8.99936800	      4.26499800	      6.14567316	
   102	     2	-1.0000      8.94842000	      1.10839000	     13.33027380	
   103	     2	-1.0000      9.74678600	      4.72190400	      8.64240701	
   104	     2	-1.0000      8.40479400	      2.50512400	      7.93926955	
   105	     1	 0.0000      6.09790000	      6.09790000	      0.67790000	
   106	     1	 0.0000      8.80790000	      8.80790000	      0.67790000	
   107	     1	 0.0000      7.45290000	     10.16290000	      2.03290000	
   108	     1	 0.0000     10.16290000	      7.45290000	      2.03290000	
   109	     1	 0.0000      6.09790000	      8.80790000	      3.38790000	
   110	     1	 0.0000      8.80790000	      6.09790000	      3.38790000	
   111	     1	 0.0000      7.45290000	      7.45290000	      4.74290000	
   112	     1	 0.0000     10.16290000	     10.16290000	      4.74290000	
   113	     1	 2.0000      6.86117800	      7.22648600	      7.78348970	
   114	     1	 2.0000      9.57117800	      7.22648600	     12.03976970	
   115	     1	 2.0000      6.86117800	      9.03351400	     11.76907030	
   116	     1	 2.0000      9.57117800	      9.03351400	      7.51279030	
   117	     1	 2.0000     10.66764400	      5.42000000	      9.77628000	
   118	     1	 2.0000      7.95764400	      5.42000000	     14.03256000	
   119	     2	-1.0000      6.28936800	      6.57500200	      9.15060684	
   120	     2	-1.0000      8.45249000	      8.38148800	     11.53412364	
   121	     2	-1.0000      5.74249000	      8.38148800	      7.27869490	
   122	     2	-1.0000      6.93760000	     10.18851600	     12.90038952	
   123	     2	-1.0000      5.74249000	      7.87851200	     12.27471636	
   124	     2	-1.0000      9.64760000	      6.07148400	     10.90845048	
   125	     2	-1.0000      6.93760000	      6.07148400	      6.65217048	
   126	     2	-1.0000      6.28936800	      9.68499800	     10.40195316	
   127	     2	-1.0000      8.99936800	      9.68499800	      6.14567316	
   128	     2	-1.0000      8.94842000	      6.52839000	     13.33027380	
   129	     2	-1.0000      9.74678600	     10.14190400	      8.64240701	
   130	     2	-1.0000      8.40479400	      7.92512400	      7.93926955	
   131	     1	 0.0000      6.09790000	     11.51790000	      0.67790000	
   132	     1	 0.0000      8.80790000	     14.22790000	      0.67790000	
   133	     1	 0.0000      7.45290000	     15.58290000	      2.03290000	
   134	     1	 0.0000     10.16290000	     12.87290000	      2.03290000	
   135	     1	 0.0000      6.09790000	     14.22790000	      3.38790000	
   136	     1	 0.0000      8.80790000	     11.51790000	      3.38790000	
   137	     1	 0.0000      7.45290000	     12.87290000	      4.74290000	
   138	     1	 0.0000     10.16290000	     15.58290000	      4.74290000	
   139	     1	 2.0000      6.86117800	     12.64648600	      7.78348970	
   140	     1	 2.0000      9.57117800	     12.64648600	     12.03976970	
   141	     1	 2.0000      6.86117800	     14.45351400	     11.76907030	
   142	     1	 2.0000      9.57117800	     14.45351400	      7.51279030	
   143	     1	 2.0000     10.66764400	     10.84000000	      9.77628000	
   144	     1	 2.0000      7.95764400	     10.84000000	     14.03256000	
   145	     2	-1.0000      6.28936800	     11.99500200	      9.15060684	
   146	     2	-1.0000      8.45249000	     13.80148800	     11.53412364	
   147	     2	-1.0000      5.74249000	     13.80148800	      7.27869490	
   148	     2	-1.0000      6.93760000	     15.60851600	     12.90038952	
   149	     2	-1.0000      5.74249000	     13.29851200	     12.27471636	
   150	     2	-1.0000      9.64760000	     11.49148400	     10.90845048	
   151	     2	-1.0000      6.93760000	     11.49148400	      6.65217048	
   152	     2	-1.0000      6.28936800	     15.10499800	     10.40195316	
   153	     2	-1.0000      8.99936800	     15.10499800	      6.14567316	
   154	     2	-1.0000      8.94842000	     11.94839000	     13.33027380	
   155	     2	-1.0000      9.74678600	     15.56190400	      8.64240701	
   156	     2	-1.0000      8.40479400	     13.34512400	      7.93926955	
   157	     1	 0.0000     11.51790000	      0.67790000	      0.67790000	
   158	     1	 0.0000     14.22790000	      3.38790000	      0.67790000	
   159	     1	 0.0000     12.87290000	      4.74290000	      2.03290000	
   160	     1	 0.0000     15.58290000	      2.03290000	      2.03290000	
   161	     1	 0.0000     11.51790000	      3.38790000	      3.38790000	
   162	     1	 0.0000     14.22790000	      0.67790000	      3.38790000	
   163	     1	 0.0000     12.87290000	      2.03290000	      4.74290000	
   164	     1	 0.0000     15.58290000	      4.74290000	      4.74290000	
   165	     1	 2.0000     12.28117800	      1.80648600	      7.78348970	
   166	     1	 2.0000     14.99117800	      1.80648600	     12.03976970	
   167	     1	 2.0000     12.28117800	      3.61351400	     11.76907030	
   168	     1	 2.0000     14.99117800	      3.61351400	      7.51279030	
   169	     1	 2.0000     16.08764400	      0.00000000	      9.77628000	
   170	     1	 2.0000     13.37764400	      0.00000000	     14.03256000	
   171	     2	-1.0000     11.70936800	      1.15500200	      9.15060684	
   172	     2	-1.0000     13.87249000	      2.96148800	     11.53412364	
   173	     2	-1.0000     11.16249000	      2.96148800	      7.27869490	
   174	     2	-1.0000     12.35760000	      4.76851600	     12.90038952	
   175	     2	-1.0000     11.16249000	      2.45851200	     12.27471636	
   176	     2	-1.0000     15.06760000	      0.65148400	     10.90845048	
   177	     2	-1.0000     12.35760000	      0.65148400	      6.65217048	
   178	     2	-1.0000     11.70936800	      4.26499800	     10.40195316	
   179	     2	-1.0000     14.41936800	      4.26499800	      6.14567316	
   180	     2	-1.0000     14.36842000	      1.10839000	     13.33027380	
   181	     2	-1.0000     15.16678600	      4.72190400	      8.64240701	
   182	     2	-1.0000     13.82479400	      2.50512400	      7.93926955	
   183	     1	 0.0000     11.51790000	      6.09790000	      0.67790000	
   184	     1	 0.0000     14.22790000	      8.80790000	      0.67790000	
   185	     1	 0.0000     12.87290000	     10.16290000	      2.03290000	
   186	     1	 0.0000     15.58290000	      7.45290000	      2.03290000	
   187	     1	 0.0000     11.51790000	      8.80790000	      3.38790000	
   188	     1	 0.0000     14.22790000	      6.09790000	      3.38790000	
   189	     1	 0.0000     12.87290000	      7.45290000	      4.74290000	
   190	     1	 0.0000     15.58290000	     10.16290000	      4.74290000	
   191	     1	 2.0000     12.28117800	      7.22648600	      7.78348970	
   192	     1	 2.0000     14.99117800	      7.22648600	     12.03976970	
   193	     1	 2.0000     12.28117800	      9.03351400	     11.76907030	
   194	     1	 2.0000     14.99117800	      9.03351400	      7.51279030	
   195	     1	 2.0000     16.08764400	      5.42000000	      9.77628000	
   196	     1	 2.0000     13.37764400	      5.42000000	     14.03256000	
   197	     2	-1.0000     11.70936800	      6.57500200	      9.15060684	
   198	     2	-1.0000     13.87249000	      8.38148800	     11.53412364	
   199	     2	-1.0000     11.16249000	      8.38148800	      7.27869490	
   200	     2	-1.0000     12.35760000	     10.18851600	     12.90038952	
   201	     2	-1.0000     11.16249000	      7.87851200	     12.27471636	
   202	     2	-1.0000     15.06760000	      6.07148400	     10.90845048	
   203	     2	-1.0000     12.35760000	      6.07148400	      6.65217048	
   204	     2	-1.0000     11.70936800	      9.68499800	     10.40195316	
   205	     2	-1.0000     14.41936800	      9.68499800	      6.14567316	
   206	     2	-1.0000     14.36842000	      6.52839000	     13.33027380	
   207	     2	-1.0000     15.16678600	     10.14190400	      8.64240701	
   208	     2	-1.0000     13.82479400	      7.92512400	      7.93926955	
   209	     1	 0.0000     11.51790000	     11.51790000	      0.67790000	
   210	     1	 0.0000     14.22790000	     14.22790000	      0.67790000	
   211	     1	 0.0000     12.87290000	     15.58290000	      2.03290000	
   212	     1	 0.0000     15.58290000	     12.87290000	      2.03290000	
   213	     1	 0.0000     11.51790000	     14.22790000	      3.38790000	
   214	     1	 0.0000     14.22790000	     11.51790000	      3.38790000	
   215	     1	 0.0000     12.87290000	     12.87290000	      4.74290000	
   216	     1	 0.0000     15.58290000	     15.58290000	      4.74290000	
   217	     1	 2.0000     12.28117800	     12.64648600	      7.78348970	
   218	     1	 2.0000     14.99117800	     12.64648600	     12.03976970	
   219	     1	 2.0000     12.28117800	     14.45351400	     11.76907030	
   220	     1	 2.0000     14.99117800	     14.45351400	      7.51279030	
   221	     1	 2.0000     16.08764400	     10.84000000	      9.77628000	
   222	     1	 2.0000     13.37764400	     10.84000000	     14.03256000	
   223	     2	-1.0000     11.70936800	     11.99500200	      9.15060684	
   224	     2	-1.0000     13.87249000	     13.80148800	     11.53412364	
   225	     2	-1.0000     11.16249000	     13.80148800	      7.27869490	
   226	     2	-1.0000     12.35760000	     15.60851600	     12.90038952	
   227	     2	-1.0000     11.16249000	     13.29851200	     12.27471636	
   228	     2	-1.0000     15.06760000	     11.49148400	     10.90845048	
   229	     2	-1.0000     12.35760000	     11.49148400	      6.65217048	
   230	     2	-1.0000     11.70936800	     15.10499800	     10.40195316	
   231	     2	-1.0000     14.41936800	     15.10499800	      6.14567316	
   232	     2	-1.0000     14.36842000	     11.94839000	     13.33027380	
   233	     2	-1.0000     15.16678600	     15.56190400	      8.64240701	
   234	     2	-1.0000     13.82479400	     13.34512400	      7.93926955	
