Created with astools

               18 atoms
		0 bonds
		0 angles
		0 dihedrals
		0 impropers

                2 atom types
		0 bond types
		0 angle types
		0 dihedral types
		0 improper types

	        0.00000000	       14.74419000	xlo xhi
	        0.00000000	       25.53768000	ylo yhi
	        0.00000000	       14.74419000	zlo zhi

Atoms

     1	     1	 2.0000      1.30682671	     23.27419030	      1.63807951	
     2	     1	 2.0000     13.59365171	      1.99279030	      1.63807951	
     3	     1	 2.0000      1.30682671	      2.26348970	     13.10611049	
     4	     1	 2.0000     13.59365171	     23.54488970	     13.10611049	
     5	     1	 2.0000     14.58790159	      4.25628000	      0.00000000	
     6	     1	 2.0000      2.30107659	      0.00000000	      0.00000000	
     7	     2	-1.0000      0.78832269	     21.90707316	      1.04732896	
     8	     2	-1.0000     12.57925143	      2.49843636	     12.51486847	
     9	     2	-1.0000      0.29242643	     23.77898510	     12.51486847	
    10	     2	-1.0000      1.37612440	      1.13217048	     14.15343945	
    11	     2	-1.0000      0.29242643	      1.75784364	      2.22932153	
    12	     2	-1.0000     13.66294940	      3.12410952	      0.59075055	
    13	     2	-1.0000      1.37612440	     24.40550952	      0.59075055	
    14	     2	-1.0000      0.78832269	      3.63060684	     13.69686104	
    15	     2	-1.0000     13.07514769	     24.91200684	     13.69686104	
    16	     2	-1.0000     13.02894923	      0.70228620	      1.00506228	
    17	     2	-1.0000     13.75288896	     22.41527299	     14.11117278	
    18	     2	-1.0000     12.53600181	     23.11841045	      2.27158821	
