Created with astools

               84 atoms
		0 bonds
		0 angles
		0 dihedrals
		0 impropers

                2 atom types
		0 bond types
		0 angle types
		0 dihedral types
		0 improper types

	        0.00000000	        9.82946000	xlo xhi
	        0.00000000	        9.82946000	ylo yhi
	        0.00000000	       10.21507200	zlo zhi

Atoms

     1	     1	 2.0000      1.30682671	      1.63807951	      6.24907030	
     2	     1	 2.0000      3.76419171	      1.63807951	      1.99279030	
     3	     1	 2.0000      1.30682671	      3.27665049	      2.26348970	
     4	     1	 2.0000      3.76419171	      3.27665049	      6.51976970	
     5	     1	 2.0000      4.75844159	      0.00000000	      4.25628000	
     6	     1	 2.0000      2.30107659	      0.00000000	      0.00000000	
     7	     2	-1.0000      0.78832269	      1.04732896	      4.88195316	
     8	     2	-1.0000      2.74979143	      2.68540847	      2.49843636	
     9	     2	-1.0000      0.29242643	      2.68540847	      6.75386510	
    10	     2	-1.0000      1.37612440	      4.32397945	      1.13217048	
    11	     2	-1.0000      0.29242643	      2.22932153	      1.75784364	
    12	     2	-1.0000      3.83348940	      0.59075055	      3.12410952	
    13	     2	-1.0000      1.37612440	      0.59075055	      7.38038952	
    14	     2	-1.0000      0.78832269	      3.86740104	      3.63060684	
    15	     2	-1.0000      3.24568769	      3.86740104	      7.88688684	
    16	     2	-1.0000      3.19948923	      1.00506228	      0.70228620	
    17	     2	-1.0000      3.92342896	      4.28171278	      5.39015299	
    18	     2	-1.0000      2.70654181	      2.27158821	      6.09329045	
    19	     1	 2.0000      1.30682671	      6.55280951	      6.24907030	
    20	     1	 2.0000      3.76419171	      6.55280951	      1.99279030	
    21	     1	 2.0000      1.30682671	      8.19138049	      2.26348970	
    22	     1	 2.0000      3.76419171	      8.19138049	      6.51976970	
    23	     1	 2.0000      4.75844159	      4.91473000	      4.25628000	
    24	     1	 2.0000      2.30107659	      4.91473000	      0.00000000	
    25	     2	-1.0000      0.78832269	      5.96205896	      4.88195316	
    26	     2	-1.0000      2.74979143	      7.60013847	      2.49843636	
    27	     2	-1.0000      0.29242643	      7.60013847	      6.75386510	
    28	     2	-1.0000      1.37612440	      9.23870945	      1.13217048	
    29	     2	-1.0000      0.29242643	      7.14405153	      1.75784364	
    30	     2	-1.0000      3.83348940	      5.50548055	      3.12410952	
    31	     2	-1.0000      1.37612440	      5.50548055	      7.38038952	
    32	     2	-1.0000      0.78832269	      8.78213104	      3.63060684	
    33	     2	-1.0000      3.24568769	      8.78213104	      7.88688684	
    34	     2	-1.0000      3.19948923	      5.91979228	      0.70228620	
    35	     2	-1.0000      3.92342896	      9.19644278	      5.39015299	
    36	     2	-1.0000      2.70654181	      7.18631821	      6.09329045	
    37	     1	 2.0000      6.22155671	      1.63807951	      6.24907030	
    38	     1	 2.0000      8.67892171	      1.63807951	      1.99279030	
    39	     1	 2.0000      6.22155671	      3.27665049	      2.26348970	
    40	     1	 2.0000      8.67892171	      3.27665049	      6.51976970	
    41	     1	 2.0000      9.67317159	      0.00000000	      4.25628000	
    42	     1	 2.0000      7.21580659	      0.00000000	      0.00000000	
    43	     2	-1.0000      5.70305269	      1.04732896	      4.88195316	
    44	     2	-1.0000      7.66452143	      2.68540847	      2.49843636	
    45	     2	-1.0000      5.20715643	      2.68540847	      6.75386510	
    46	     2	-1.0000      6.29085440	      4.32397945	      1.13217048	
    47	     2	-1.0000      5.20715643	      2.22932153	      1.75784364	
    48	     2	-1.0000      8.74821940	      0.59075055	      3.12410952	
    49	     2	-1.0000      6.29085440	      0.59075055	      7.38038952	
    50	     2	-1.0000      5.70305269	      3.86740104	      3.63060684	
    51	     2	-1.0000      8.16041769	      3.86740104	      7.88688684	
    52	     2	-1.0000      8.11421923	      1.00506228	      0.70228620	
    53	     2	-1.0000      8.83815896	      4.28171278	      5.39015299	
    54	     2	-1.0000      7.62127181	      2.27158821	      6.09329045	
    55	     1	 2.0000      6.22155671	      6.55280951	      6.24907030	
    56	     1	 2.0000      8.67892171	      6.55280951	      1.99279030	
    57	     1	 2.0000      6.22155671	      8.19138049	      2.26348970	
    58	     1	 2.0000      8.67892171	      8.19138049	      6.51976970	
    59	     1	 2.0000      9.67317159	      4.91473000	      4.25628000	
    60	     1	 2.0000      7.21580659	      4.91473000	      0.00000000	
    61	     2	-1.0000      5.70305269	      5.96205896	      4.88195316	
    62	     2	-1.0000      7.66452143	      7.60013847	      2.49843636	
    63	     2	-1.0000      5.20715643	      7.60013847	      6.75386510	
    64	     2	-1.0000      6.29085440	      9.23870945	      1.13217048	
    65	     2	-1.0000      5.20715643	      7.14405153	      1.75784364	
    66	     2	-1.0000      8.74821940	      5.50548055	      3.12410952	
    67	     2	-1.0000      6.29085440	      5.50548055	      7.38038952	
    68	     2	-1.0000      5.70305269	      8.78213104	      3.63060684	
    69	     2	-1.0000      8.16041769	      8.78213104	      7.88688684	
    70	     2	-1.0000      8.11421923	      5.91979228	      0.70228620	
    71	     2	-1.0000      8.83815896	      9.19644278	      5.39015299	
    72	     2	-1.0000      7.62127181	      7.18631821	      6.09329045	
    73	     1	 2.0000      2.30107659	      0.00000000	      8.51256000	
    74	     2	-1.0000      1.37612440	      4.32397945	      9.64473048	
    75	     2	-1.0000      3.19948923	      1.00506228	      9.21484620	
    76	     1	 2.0000      2.30107659	      4.91473000	      8.51256000	
    77	     2	-1.0000      1.37612440	      9.23870945	      9.64473048	
    78	     2	-1.0000      3.19948923	      5.91979228	      9.21484620	
    79	     1	 2.0000      7.21580659	      0.00000000	      8.51256000	
    80	     2	-1.0000      6.29085440	      4.32397945	      9.64473048	
    81	     2	-1.0000      8.11421923	      1.00506228	      9.21484620	
    82	     1	 2.0000      7.21580659	      4.91473000	      8.51256000	
    83	     2	-1.0000      6.29085440	      9.23870945	      9.64473048	
    84	     2	-1.0000      8.11421923	      5.91979228	      9.21484620	
