Created with astools

              132 atoms
		0 bonds
		0 angles
		0 dihedrals
		0 impropers

                2 atom types
		0 bond types
		0 angle types
		0 dihedral types
		0 improper types

	        0.00000000	       10.84000000	xlo xhi
	        0.00000000	       10.84000000	ylo yhi
	        0.00000000	       18.84570000	zlo zhi

Atoms

     1	     1	 0.0000      0.67790000	      0.67790000	      0.67790000	
     2	     1	 0.0000      3.38790000	      3.38790000	      0.67790000	
     3	     1	 0.0000      2.03290000	      4.74290000	      2.03290000	
     4	     1	 0.0000      4.74290000	      2.03290000	      2.03290000	
     5	     1	 0.0000      0.67790000	      3.38790000	      3.38790000	
     6	     1	 0.0000      3.38790000	      0.67790000	      3.38790000	
     7	     1	 0.0000      2.03290000	      2.03290000	      4.74290000	
     8	     1	 0.0000      4.74290000	      4.74290000	      4.74290000	
     9	     1	 0.0000      0.67790000	      6.09790000	      0.67790000	
    10	     1	 0.0000      3.38790000	      8.80790000	      0.67790000	
    11	     1	 0.0000      2.03290000	     10.16290000	      2.03290000	
    12	     1	 0.0000      4.74290000	      7.45290000	      2.03290000	
    13	     1	 0.0000      0.67790000	      8.80790000	      3.38790000	
    14	     1	 0.0000      3.38790000	      6.09790000	      3.38790000	
    15	     1	 0.0000      2.03290000	      7.45290000	      4.74290000	
    16	     1	 0.0000      4.74290000	     10.16290000	      4.74290000	
    17	     1	 0.0000      6.09790000	      0.67790000	      0.67790000	
    18	     1	 0.0000      8.80790000	      3.38790000	      0.67790000	
    19	     1	 0.0000      7.45290000	      4.74290000	      2.03290000	
    20	     1	 0.0000     10.16290000	      2.03290000	      2.03290000	
    21	     1	 0.0000      6.09790000	      3.38790000	      3.38790000	
    22	     1	 0.0000      8.80790000	      0.67790000	      3.38790000	
    23	     1	 0.0000      7.45290000	      2.03290000	      4.74290000	
    24	     1	 0.0000     10.16290000	      4.74290000	      4.74290000	
    25	     1	 0.0000      6.09790000	      6.09790000	      0.67790000	
    26	     1	 0.0000      8.80790000	      8.80790000	      0.67790000	
    27	     1	 0.0000      7.45290000	     10.16290000	      2.03290000	
    28	     1	 0.0000     10.16290000	      7.45290000	      2.03290000	
    29	     1	 0.0000      6.09790000	      8.80790000	      3.38790000	
    30	     1	 0.0000      8.80790000	      6.09790000	      3.38790000	
    31	     1	 0.0000      7.45290000	      7.45290000	      4.74290000	
    32	     1	 0.0000     10.16290000	     10.16290000	      4.74290000	
    33	     1	 0.0000      0.67790000	      0.67790000	      6.09790000	
    34	     1	 0.0000      3.38790000	      3.38790000	      6.09790000	
    35	     1	 0.0000      2.03290000	      4.74290000	      7.45290000	
    36	     1	 0.0000      4.74290000	      2.03290000	      7.45290000	
    37	     1	 0.0000      0.67790000	      6.09790000	      6.09790000	
    38	     1	 0.0000      3.38790000	      8.80790000	      6.09790000	
    39	     1	 0.0000      2.03290000	     10.16290000	      7.45290000	
    40	     1	 0.0000      4.74290000	      7.45290000	      7.45290000	
    41	     1	 0.0000      6.09790000	      0.67790000	      6.09790000	
    42	     1	 0.0000      8.80790000	      3.38790000	      6.09790000	
    43	     1	 0.0000      7.45290000	      4.74290000	      7.45290000	
    44	     1	 0.0000     10.16290000	      2.03290000	      7.45290000	
    45	     1	 0.0000      6.09790000	      6.09790000	      6.09790000	
    46	     1	 0.0000      8.80790000	      8.80790000	      6.09790000	
    47	     1	 0.0000      7.45290000	     10.16290000	      7.45290000	
    48	     1	 0.0000     10.16290000	      7.45290000	      7.45290000	
    49	     1	 2.0000     10.69378792	      2.92721620	     15.08782159	
    50	     1	 2.0000      6.16450995	      0.06733035	     10.02154320	
    51	     1	 2.0000      3.87454118	      3.82399190	     11.61938639	
    52	     1	 2.0000      2.81545420	      4.52252925	     14.24695517	
    53	     1	 2.0000      4.65219963	      0.81224348	     12.59291224	
    54	     1	 2.0000      2.60814037	     10.55911112	      9.40680583	
    55	     2	-1.0000     10.67877973	      1.89595118	     13.66066768	
    56	     2	-1.0000      4.89083109	      2.33230269	     11.92579508	
    57	     2	-1.0000      8.88854757	      3.50081389	     15.50124982	
    58	     2	-1.0000      3.01639424	      3.66192321	     10.16214261	
    59	     2	-1.0000      1.46220211	      0.47283434	     10.38733164	
    60	     2	-1.0000      5.77693232	     10.53409011	     11.50454688	
    61	     2	-1.0000      0.49602371	      1.92580216	     16.29898642	
    62	     2	-1.0000      2.50834301	      3.75148719	     12.76639149	
    63	     2	-1.0000      3.17547452	      5.84920545	     15.45430003	
    64	     2	-1.0000      4.44196356	      0.24023042	      9.44244568	
    65	     2	-1.0000      4.18657056	      5.18279072	     12.87683103	
    66	     2	-1.0000      0.90135644	      4.27835104	     14.55325386	
    67	     1	 2.0000      0.06914126	      8.44030859	     14.88703244	
    68	     1	 2.0000      6.06469054	      5.49314394	      9.31557422	
    69	     1	 2.0000      3.28217498	      7.47912226	     10.30731198	
    70	     1	 2.0000      2.77670416	     10.25763490	     14.43095439	
    71	     1	 2.0000      5.52515629	      6.60511801	     12.29883349	
    72	     1	 2.0000      3.18474851	      3.86455042	      8.53224157	
    73	     2	-1.0000      0.28630261	      7.36325808	     13.71856743	
    74	     2	-1.0000      4.49153141	      6.91086181	      9.34431710	
    75	     2	-1.0000      9.26903461	      8.96536396	     14.93151225	
    76	     2	-1.0000      2.57687788	      8.83015784	      9.81446409	
    77	     2	-1.0000      1.69142726	      6.56203423	     10.16689259	
    78	     2	-1.0000      5.51357759	      4.63839342	     11.19182821	
    79	     2	-1.0000      0.78705374	      7.30187996	     16.13195713	
    80	     2	-1.0000      4.11480468	      7.59144666	     11.68971609	
    81	     2	-1.0000      3.02868971	      0.40734743	     15.73856881	
    82	     2	-1.0000      5.07814135	      4.23051447	      8.58027936	
    83	     2	-1.0000      3.17656623	     10.81975312	     12.97637060	
    84	     2	-1.0000      1.17973702	      9.86435614	     14.57907376	
    85	     1	 2.0000      5.37098317	      2.72400454	     15.05554172	
    86	     1	 2.0000     10.41060604	      0.85843697	     10.17493255	
    87	     1	 2.0000      6.80256238	      2.95526974	     11.28755780	
    88	     1	 2.0000      7.93126491	      4.70755684	     14.90534237	
    89	     1	 2.0000      9.27358891	      1.35674774	     12.73201164	
    90	     1	 2.0000      8.49707729	     10.06433681	     18.13960856	
    91	     2	-1.0000      5.56143621	      1.30604408	     13.93326652	
    92	     2	-1.0000     10.02345849	      2.54694971	      9.93799357	
    93	     2	-1.0000      3.79569577	      3.18580713	     14.95943213	
    94	     2	-1.0000      7.55314874	      4.18801514	      9.99059334	
    95	     2	-1.0000      6.85759979	      1.65016299	     10.26985215	
    96	     2	-1.0000      9.74777519	      0.34145250	     11.50646687	
    97	     2	-1.0000      6.16534803	      2.35178798	     16.45635574	
    98	     2	-1.0000      8.08043163	      2.61685196	     12.29617350	
    99	     2	-1.0000      8.02987131	      6.17447866	     16.00731766	
   100	     2	-1.0000      9.93930892	     10.57540952	      8.82250032	
   101	     2	-1.0000      8.61751781	      5.49376147	     13.55690812	
   102	     2	-1.0000      6.35905413	      4.06626237	     14.45104430	
   103	     1	 2.0000      5.43113725	      8.28421671	     14.90621236	
   104	     1	 2.0000     10.72169809	      6.30401672	      9.94943352	
   105	     1	 2.0000      8.12048289	      8.17621503	     10.61039070	
   106	     1	 2.0000      8.16648893	     10.20053538	     14.94936218	
   107	     1	 2.0000      9.88269459	      6.52949257	     12.83409120	
   108	     1	 2.0000      9.18920777	      3.78981820	      9.10700111	
   109	     2	-1.0000      6.03781693	      7.35545074	     13.64962773	
   110	     2	-1.0000      9.51872649	      7.45964799	      9.73590443	
   111	     2	-1.0000      3.72267277	      8.84462571	     14.74274306	
   112	     2	-1.0000      7.51837956	      9.63579264	      9.75938432	
   113	     2	-1.0000      6.76222441	      6.81696408	     10.88375953	
   114	     2	-1.0000     10.34397891	      5.87432572	     11.47491701	
   115	     2	-1.0000      5.81580367	      7.75424316	     16.50618554	
   116	     2	-1.0000      9.08096348	      8.12389034	     12.05766452	
   117	     2	-1.0000      8.39779823	      0.31096304	     16.56391528	
   118	     2	-1.0000     10.23105903	      5.02995191	      9.02449746	
   119	     2	-1.0000      8.35259720	      0.41610202	     13.88428672	
   120	     2	-1.0000      6.58631641	      9.55294430	     14.89220242	
   121	     1	 2.0000      2.04307783	      1.25216453	     16.94637365	
   122	     2	-1.0000      2.97098369	      2.47570212	     17.92694947	
   123	     2	-1.0000      1.97415702	     10.77943720	     18.02447905	
   124	     1	 2.0000      2.26913813	      6.63695392	     16.74577451	
   125	     2	-1.0000      3.08539225	      7.76371563	     17.45159150	
   126	     2	-1.0000      2.21004267	      5.16192701	     17.89778959	
   127	     1	 2.0000      7.67814354	      1.86327719	     17.13264286	
   128	     2	-1.0000      8.72822119	      3.01659273	     17.98627922	
   129	     2	-1.0000      7.33500606	      0.41314009	     18.36873758	
   130	     1	 2.0000      7.15380495	      7.16890137	     17.18337264	
   131	     2	-1.0000      8.44476364	      8.50803846	     17.56085103	
   132	     2	-1.0000      7.03615435	      6.27733058	     18.50695699	
