LAMMPS (6 Dec 2012)
# units set to angstroem, eV, etc
units           metal
# atomic style, point charge
atom_style      charge
# periodic boundary conditions
boundary        p p p

# input geometry put in data.cr2lmp
read_data       data.SiO2tomelt   #	  generated automatically, -1 charge on O, -2 on Si, comme d'habitude 
  orthogonal box = (0 0 0) to (9.82946 9.82946 10.2151)
  1 by 1 by 1 MPI processor grid
  84 atoms

# outputs optimization steps in dump.SiSiO2, every 10 steps, outputs all atoms in atom coordinates
dump myDump all custom 1 dump.SiO2Simelt id mass x y z q

#define atomic masses
mass            1 28.086 # atom label 1 = SiO2 silicon
group           type1 type 1
28 atoms in group type1
compute         charge1 type1 property/atom q # computes the charge
compute         q1 type1 reduce ave c_charge1 # q1 = average(charge1) for all charge1 ats
mass            2 16.00	# atom label 2 = oxygen
group           type2 type 2
56 atoms in group type2
compute         charge2 type2 property/atom q # computes the charge
compute         q2 type2 reduce ave c_charge2 # q2 = average(charge2) for all charge1 ats

#compute			pairdist all rdf 50 1 1 1 2 xx3 3 #see: http://lammps.sandia.gov/doc/compute_rdf.html

pair_style      comb # comb 10, Sinnot et al.
pair_coeff      * * /home/eric/lammps-6Dec12/potentials/ffield.comb Si O # Si & O are treated with COMB (?), * * -> used to span all atom types
neighbor        2.0 bin
neigh_modify    every 20 delay 0 check no 

timestep        0.001

thermo_style    custom step etotal vol press temp 

fix             1 all npt temp 4000.00 3000.00 .001 iso 1.0 1.0 1000.0 
fix             2 all qeq/comb 1 0.0005

# something about the box allowed to relax
#fix             3 all box/relax z 0.0 

# print pair distribution function
#fix             4 all ave/time 10 1 10 c_pairdist[1] c_pairdist[2] c_pairdist[3] file SiO2Si.rdf mode vector start 400 

#velocity       all create 10.0 277387

#minimize etol[energy tolerance] ftol[force tolerance] maxiter[max iterations of minimizer] maxeval[max number of force/energy evaluations]
#minimize        1.0e-5 1.0e-7 200 10000

# compute and print thermodynamic info at timesteps that are multiples of 100
thermo          50
# runs a 3000 steps optimization
run             3000
Memory usage per processor = 3.18584 Mbytes
Step TotEng Volume Press Temp 
       0   -325.37158    986.96273    206555.13            0 
      50   -406.27122    986.96274    152235.69    5807.7238 
     100   -418.38327    986.96278    80745.152    7691.1217 
     150   -415.93519    986.96284    197472.38    3295.2307 
     200   -425.69379    986.96293    199751.95    4352.4577 
     250    -401.5875    986.96306    320170.02    4092.4054 
     300   -430.79946    986.96321    142606.88    4312.1084 
     350   -447.15214    986.96338    89241.821     3507.298 
     400    -425.2012    986.96358    169793.42    4087.0369 
     450   -457.10047     986.9638   -1633.9112    3755.7246 
     500   -448.95932    986.96403   -7790.1872    3546.7315 
     550   -468.01431    986.96428     37935.33    3528.4295 
     600   -420.47545    986.96455    21340.353    4497.6966 
     650   -449.79716    986.96483    28692.947    4259.9496 
     700   -437.85378    986.96511    111972.66    3664.8262 
     750   -463.12541    986.96541    52781.007     4086.144 
     800   -448.96998    986.96572    44462.011    4025.0348 
     850   -442.63291    986.96604    93462.157    4313.4427 
     900   -433.87939    986.96636    145750.42    3806.9902 
     950   -440.07723    986.96671    165901.19    3771.5674 
    1000   -437.28749    986.96707    71053.543    3483.1851 
    1050   -449.21548    986.96745    86847.941    3367.4939 
    1100   -436.72519    986.96784    140664.48    3722.9337 
    1150   -439.93153    986.96824    145931.79    3530.2628 
    1200   -457.46413    986.96866     79814.71    3346.4152 
    1250    -460.0494    986.96909     59108.47    3230.3707 
    1300   -455.95887    986.96953    130405.81    3292.0873 
    1350   -448.82596    986.96999    118971.82     3820.844 
    1400   -446.47766    986.97046    47163.751     3487.304 
    1450   -450.84134    986.97093    54603.801    3426.4179 
    1500   -446.01681    986.97143    96807.261    3270.0402 
    1550   -444.57987    986.97193     62929.27    3103.1046 
    1600   -426.65718    986.97245    164125.13    3422.0705 
    1650   -436.33389    986.97298    77526.897    4120.3944 
    1700   -451.90239    986.97352    27992.064    3559.7877 
    1750   -440.87389    986.97408    75400.056    3294.7598 
    1800   -440.66206    986.97464     54144.24    3666.6962 
    1850   -446.31426    986.97521    124941.05    2644.2971 
    1900   -458.37724     986.9758    93691.823    2883.0982 
    1950   -439.10898     986.9764    115006.29    3916.6785 
    2000   -461.15112    986.97702    34896.258    3177.9415 
    2050   -438.20059    986.97766    107513.79    3219.6275 
    2100   -446.96532     986.9783    83746.574    3522.4397 
    2150   -457.91284    986.97897    73067.888    3385.4077 
    2200   -454.32711    986.97964    109127.21    2868.9914 
    2250   -460.24881    986.98033    51954.749    3151.6671 
    2300   -452.31479    986.98103    68775.368    2716.1714 
    2350   -452.75981    986.98174    84315.817    3003.3369 
    2400   -438.90383    986.98246    131103.18    3365.7944 
    2450   -449.40646     986.9832    64151.157    3416.1334 
    2500   -460.17106    986.98395    68138.514    3216.4113 
    2550   -470.80515    986.98471    85685.756    2913.7126 
    2600   -453.59808    986.98549     83711.64    2835.4398 
    2650   -442.52781    986.98628    85645.601    3020.7531 
    2700   -441.71579    986.98709    132497.81    3470.7423 
    2750   -456.53362     986.9879    76747.263    3218.1847 
    2800   -455.65268    986.98873    86250.147    2801.0977 
    2850   -467.23774    986.98957    41753.445    3050.8746 
    2900   -444.33943    986.99042    110258.97    3649.5573 
    2950   -461.14645    986.99129    56162.101     3050.937 
    3000   -460.00883    986.99217    87759.814    2962.3723 
Loop time of 1672.26 on 1 procs for 3000 steps with 84 atoms

Pair  time (%) = 31.9238 (1.90902)
Neigh time (%) = 0.484038 (0.0289451)
Comm  time (%) = 0.177417 (0.0106094)
Outpt time (%) = 0.717077 (0.0428806)
Other time (%) = 1638.96 (98.0085)

Nlocal:    84 ave 84 max 84 min
Histogram: 1 0 0 0 0 0 0 0 0 0
Nghost:    4572 ave 4572 max 4572 min
Histogram: 1 0 0 0 0 0 0 0 0 0
Neighs:    0 ave 0 max 0 min
Histogram: 1 0 0 0 0 0 0 0 0 0
FullNghs:  81950 ave 81950 max 81950 min
Histogram: 1 0 0 0 0 0 0 0 0 0

Total # of neighbors = 81950
Ave neighs/atom = 975.595
Neighbor list builds = 150
Dangerous builds = 0

print "                        "
                        
print "  !!!!  FINISHED  !!!!  "
  !!!!  FINISHED  !!!!  
print "                        "
                        
