LAMMPS (6 Dec 2012)
clear 

units           metal
atom_style      charge
boundary        p p p

read_data       data.SiO2tomelt # generated automatically, -1 charge on O, -2 on Si, comme d'habitude 
  orthogonal box = (0 0 0) to (9.82946 9.82946 12.7688)
  1 by 1 by 1 MPI processor grid
  108 atoms

variable e equal pe
variable t equal etotal


dump myDump all custom 1 dump.SiO2tomelt id mass x y z q

#print "Initial potential energy = $e"

#define atomic masses
mass            1 28.086 # atom label 1 = SiO2 silicon
group           type1 type 1
36 atoms in group type1
compute         charge1 type1 property/atom q # computes the charge
compute         q1 type1 reduce ave c_charge1 # q1 = average(charge1) for all charge1 ats
mass            2 16.00	# atom label 2 = oxygen
group           type2 type 2
72 atoms in group type2
compute         charge2 type2 property/atom q # computes the charge
compute         q2 type2 reduce ave c_charge2 # q2 = average(charge2) for all charge1 ats

compute			pairdist all rdf 50 1 1 1 2 #see: http://lammps.sandia.gov/doc/compute_rdf.html

pair_style      comb # comb 10, Sinnot et al.
pair_coeff      * * /home/eric/lammps-6Dec12/potentials/ffield.comb Si O # Si & O are treated with COMB (?), * * -> used to span all atom types
neighbor        2.0 bin
neigh_modify    every 20 delay 0 check no 

timestep        0.001

thermo_style    custom step etotal vol

fix             1 all npt temp 4000.00 3000.00 .001 iso 1.0 1.0 1000.0 
fix             2 all qeq/comb 1 0.0005

# print pair distribution function
fix             4 all ave/time 10 1 10 c_pairdist[1] c_pairdist[2] c_pairdist[3] file SiO2Sitomelt.rdf mode vector start 400 

#velocity       all create 10.0 277387

#minimize etol[energy tolerance] ftol[force tolerance] maxiter[max iterations of minimizer] maxeval[max number of force/energy evaluations]
#minimize        1.0e-5 1.0e-7 200 10000

# compute and print thermodynamic info at timesteps that are multiples of 100
thermo          5
# runs a 3000 steps optimization
run             5000
Memory usage per processor = 4.02264 Mbytes
Step TotEng Volume 
       0   -576.97369    1233.7034 
       5   -716.42082    1233.7034 
      10   -711.77391    1233.7034 
      15   -706.94067    1233.7034 
      20   -662.33611    1233.7034 
      25   -479.00767    1233.7034 
      30   -398.17551    1233.7034 
      35   -503.76138    1233.7034 
      40   -648.91168    1233.7034 
      45   -669.83662    1233.7034 
      50   -699.67854    1233.7034 
      55   -694.90171    1233.7034 
      60    -701.8845    1233.7034 
      65   -673.72351    1233.7034 
      70   -659.33094    1233.7034 
      75   -640.89473    1233.7034 
      80   -674.54627    1233.7034 
      85   -676.73146    1233.7034 
      90   -678.22139    1233.7035 
      95   -679.71286    1233.7035 
     100   -671.67525    1233.7035 
     105   -697.88003    1233.7035 
     110   -695.64593    1233.7035 
     115   -701.31883    1233.7035 
     120   -678.87511    1233.7035 
     125   -675.41583    1233.7035 
     130   -687.69659    1233.7035 
     135   -643.57965    1233.7035 
     140   -628.95632    1233.7035 
     145   -639.69802    1233.7035 
     150   -630.29057    1233.7035 
     155   -575.59876    1233.7035 
     160   -510.11774    1233.7035 
     165   -489.06279    1233.7035 
     170   -474.21919    1233.7036 
     175   -525.16408    1233.7036 
     180   -563.28751    1233.7036 
     185   -651.04636    1233.7036 
     190   -656.64127    1233.7036 
     195   -637.08347    1233.7036 
     200   -673.43868    1233.7036 
     205   -682.29547    1233.7036 
     210   -672.10237    1233.7036 
     215   -662.10877    1233.7036 
     220   -666.70049    1233.7037 
     225   -652.92218    1233.7037 
     230   -589.39677    1233.7037 
     235   -563.37111    1233.7037 
     240   -586.33227    1233.7037 
     245   -598.29259    1233.7037 
     250   -596.00361    1233.7037 
     255   -589.41208    1233.7038 
     260   -590.97722    1233.7038 
     265   -600.30744    1233.7038 
     270   -600.96679    1233.7038 
     275   -624.68946    1233.7038 
     280   -593.99933    1233.7038 
     285   -597.65237    1233.7038 
     290   -578.29986    1233.7039 
     295   -582.17234    1233.7039 
     300   -591.16621    1233.7039 
     305   -591.55936    1233.7039 
     310   -597.69669    1233.7039 
     315   -590.51449     1233.704 
     320    -578.2938     1233.704 
     325   -587.39159     1233.704 
     330   -629.17811     1233.704 
     335    -619.4648     1233.704 
     340   -607.49276    1233.7041 
     345   -618.86963    1233.7041 
     350   -608.43396    1233.7041 
     355   -613.23391    1233.7041 
     360   -559.20931    1233.7042 
     365   -556.35152    1233.7042 
     370   -575.06815    1233.7042 
     375   -587.61816    1233.7042 
     380   -603.12021    1233.7043 
     385   -598.84613    1233.7043 
     390   -575.76044    1233.7043 
     395   -605.36747    1233.7043 
     400   -606.73442    1233.7044 
     405   -557.99763    1233.7044 
     410   -587.36664    1233.7044 
     415   -572.03666    1233.7044 
     420   -595.39381    1233.7045 
     425   -600.90582    1233.7045 
     430   -590.76722    1233.7045 
     435   -579.93897    1233.7046 
     440   -601.14807    1233.7046 
     445   -577.47402    1233.7046 
     450    -579.3058    1233.7046 
     455   -603.74576    1233.7047 
     460    -595.9361    1233.7047 
     465    -585.3253    1233.7047 
     470   -592.79839    1233.7048 
     475   -593.70568    1233.7048 
     480   -613.86541    1233.7048 
     485   -603.22999    1233.7049 
     490   -590.92837    1233.7049 
     495   -573.23512    1233.7049 
     500   -569.15283     1233.705 
     505   -599.50279     1233.705 
     510    -578.2463     1233.705 
     515    -592.2969    1233.7051 
     520    -576.7837    1233.7051 
     525    -585.8951    1233.7051 
     530   -596.48814    1233.7052 
     535   -592.93018    1233.7052 
     540   -604.23146    1233.7053 
     545   -600.62161    1233.7053 
     550   -599.66085    1233.7053 
     555   -569.08525    1233.7054 
     560   -561.04296    1233.7054 
     565   -548.49276    1233.7055 
     570   -569.92215    1233.7055 
     575    -598.2388    1233.7055 
     580   -582.31242    1233.7056 
     585   -581.64915    1233.7056 
     590   -558.04206    1233.7057 
     595   -575.72281    1233.7057 
     600   -607.50808    1233.7057 
     605   -625.49911    1233.7058 
     610   -600.35806    1233.7058 
     615   -603.29164    1233.7059 
     620   -584.48631    1233.7059 
     625   -563.29864     1233.706 
     630   -584.19168     1233.706 
     635   -597.20817     1233.706 
     640   -597.41992    1233.7061 
     645   -602.98871    1233.7061 
     650   -603.41111    1233.7062 
     655     -591.527    1233.7062 
     660    -543.8666    1233.7063 
     665   -566.70335    1233.7063 
     670   -561.66046    1233.7064 
     675    -596.6069    1233.7064 
     680   -571.70058    1233.7064 
     685   -601.90262    1233.7065 
     690   -600.84253    1233.7065 
     695   -572.86911    1233.7066 
     700   -584.42106    1233.7066 
     705   -601.76246    1233.7067 
     710   -575.22555    1233.7067 
     715   -571.68815    1233.7068 
     720   -602.68555    1233.7068 
     725   -576.01035    1233.7069 
     730   -584.21242    1233.7069 
     735   -588.97494     1233.707 
     740   -592.33958     1233.707 
     745   -592.66572    1233.7071 
     750   -579.58139    1233.7071 
     755   -572.35733    1233.7072 
     760     -539.555    1233.7072 
     765   -560.19419    1233.7073 
     770   -580.08551    1233.7073 
     775   -560.95385    1233.7074 
     780   -566.19763    1233.7074 
     785   -588.29399    1233.7075 
     790   -581.76478    1233.7075 
     795    -594.3463    1233.7076 
     800   -579.97559    1233.7076 
     805   -570.28475    1233.7077 
     810   -572.00576    1233.7078 
     815   -563.23013    1233.7078 
     820   -552.39655    1233.7079 
     825   -593.34911    1233.7079 
     830   -582.68882     1233.708 
     835   -582.77775     1233.708 
     840    -582.6222    1233.7081 
     845    -548.4752    1233.7081 
     850   -526.64223    1233.7082 
     855   -571.92911    1233.7082 
     860   -593.66347    1233.7083 
     865   -570.87467    1233.7084 
     870   -578.03334    1233.7084 
     875   -536.86321    1233.7085 
     880    -570.1626    1233.7085 
     885   -592.16421    1233.7086 
     890   -588.83121    1233.7086 
     895   -586.58322    1233.7087 
     900   -591.70535    1233.7087 
     905   -593.86025    1233.7088 
     910   -581.30145    1233.7089 
     915   -581.71461    1233.7089 
     920   -566.54324     1233.709 
     925   -591.47209     1233.709 
     930   -578.17986    1233.7091 
     935   -561.86949    1233.7092 
     940   -560.95026    1233.7092 
     945   -562.85023    1233.7093 
     950   -561.44895    1233.7093 
     955    -557.5055    1233.7094 
     960   -598.59438    1233.7095 
     965   -596.74208    1233.7095 
     970    -573.9661    1233.7096 
     975   -571.73071    1233.7096 
     980   -582.39185    1233.7097 
     985   -606.25323    1233.7098 
     990   -593.48768    1233.7098 
     995   -588.33744    1233.7099 
    1000   -582.68629      1233.71 
    1005   -588.74312      1233.71 
    1010   -597.32997    1233.7101 
    1015   -579.33007    1233.7101 
    1020   -574.44255    1233.7102 
    1025   -570.69187    1233.7103 
    1030   -569.39835    1233.7103 
    1035   -570.74396    1233.7104 
    1040   -582.84268    1233.7105 
    1045    -583.1331    1233.7105 
    1050   -587.74334    1233.7106 
    1055   -594.81551    1233.7107 
    1060   -590.26671    1233.7107 
    1065   -584.72472    1233.7108 
    1070   -596.99669    1233.7109 
    1075   -598.03344    1233.7109 
    1080   -591.89316     1233.711 
    1085   -589.69496    1233.7111 
    1090    -598.1596    1233.7111 
    1095   -585.20734    1233.7112 
    1100   -580.14339    1233.7113 
    1105   -567.70433    1233.7113 
    1110   -593.02001    1233.7114 
    1115   -591.64123    1233.7115 
    1120   -587.28077    1233.7115 
    1125   -586.80278    1233.7116 
    1130   -600.92223    1233.7117 
    1135   -600.93422    1233.7117 
    1140   -606.56666    1233.7118 
    1145   -593.20999    1233.7119 
    1150   -597.78743     1233.712 
    1155   -591.14543     1233.712 
    1160   -578.56918    1233.7121 
    1165   -584.58107    1233.7122 
    1170   -581.72929    1233.7123 
    1175   -593.10645    1233.7123 
    1180   -585.72957    1233.7124 
    1185   -583.19078    1233.7125 
    1190   -594.06787    1233.7125 
    1195   -595.05826    1233.7126 
    1200   -600.37875    1233.7127 
    1205   -590.34135    1233.7128 
    1210   -576.74955    1233.7128 
    1215    -577.2566    1233.7129 
    1220   -579.51942     1233.713 
    1225   -592.67857    1233.7131 
    1230   -604.31731    1233.7131 
    1235   -589.91705    1233.7132 
    1240   -592.79162    1233.7133 
    1245   -595.32138    1233.7134 
    1250   -576.95312    1233.7135 
    1255    -581.0352    1233.7135 
    1260    -592.8625    1233.7136 
    1265   -592.65113    1233.7137 
    1270   -594.08209    1233.7138 
    1275   -605.14391    1233.7138 
    1280   -602.72498    1233.7139 
    1285   -586.52437     1233.714 
    1290   -590.87387    1233.7141 
    1295   -595.55162    1233.7142 
    1300    -601.7895    1233.7142 
    1305   -593.77759    1233.7143 
    1310   -597.59516    1233.7144 
    1315   -608.09816    1233.7145 
    1320   -600.43289    1233.7146 
    1325   -600.11558    1233.7146 
    1330   -598.32234    1233.7147 
    1335   -600.59606    1233.7148 
    1340   -594.42775    1233.7149 
    1345   -588.29054     1233.715 
    1350   -587.06509    1233.7151 
    1355   -580.35192    1233.7151 
    1360   -586.41919    1233.7152 
    1365   -584.02273    1233.7153 
    1370   -587.51011    1233.7154 
    1375   -589.57864    1233.7155 
    1380   -591.03355    1233.7156 
    1385   -596.36084    1233.7157 
    1390   -597.41091    1233.7157 
    1395   -596.76246    1233.7158 
    1400   -604.36552    1233.7159 
    1405    -578.9941     1233.716 
    1410   -575.46798    1233.7161 
    1415   -582.23946    1233.7162 
    1420   -580.29332    1233.7163 
    1425   -577.39179    1233.7163 
    1430   -576.72141    1233.7164 
    1435   -590.60032    1233.7165 
    1440   -582.90047    1233.7166 
    1445    -592.0089    1233.7167 
    1450   -588.05428    1233.7168 
    1455   -582.44065    1233.7169 
    1460   -608.17534     1233.717 
    1465   -599.38732    1233.7171 
    1470   -584.53056    1233.7171 
    1475   -576.78388    1233.7172 
    1480   -592.27339    1233.7173 
    1485   -602.94813    1233.7174 
    1490   -602.42135    1233.7175 
    1495   -569.19571    1233.7176 
    1500   -567.33319    1233.7177 
    1505   -560.40896    1233.7178 
    1510   -563.79481    1233.7179 
    1515   -578.74331     1233.718 
    1520   -590.30342    1233.7181 
    1525   -579.74862    1233.7182 
    1530   -592.15059    1233.7183 
    1535   -592.71279    1233.7183 
    1540    -583.4831    1233.7184 
    1545   -565.19413    1233.7185 
    1550   -561.82356    1233.7186 
    1555   -574.79784    1233.7187 
    1560   -571.92919    1233.7188 
    1565   -587.16697    1233.7189 
    1570   -593.69342     1233.719 
    1575   -584.39207    1233.7191 
    1580   -570.82672    1233.7192 
    1585    -577.5364    1233.7193 
    1590   -568.49322    1233.7194 
    1595   -578.54851    1233.7195 
    1600   -587.04362    1233.7196 
    1605   -589.59079    1233.7197 
    1610   -587.16926    1233.7198 
    1615   -579.40806    1233.7199 
    1620   -596.34345      1233.72 
    1625   -602.06379    1233.7201 
    1630   -597.92243    1233.7202 
    1635   -593.00536    1233.7203 
    1640   -587.70553    1233.7204 
    1645   -581.55182    1233.7205 
    1650   -577.37109    1233.7206 
    1655   -576.15204    1233.7207 
    1660   -593.57734    1233.7208 
    1665   -573.48981    1233.7209 
    1670   -585.94753     1233.721 
    1675   -572.42253    1233.7211 
    1680   -580.97741    1233.7212 
    1685   -584.59521    1233.7213 
    1690   -584.36294    1233.7214 
    1695   -575.34284    1233.7215 
    1700   -584.17727    1233.7216 
    1705   -595.08165    1233.7217 
    1710   -592.20147    1233.7218 
    1715   -586.30293    1233.7219 
    1720   -579.52167     1233.722 
    1725   -577.78354    1233.7221 
    1730   -579.73113    1233.7222 
    1735   -573.20724    1233.7223 
    1740   -573.95716    1233.7224 
    1745    -573.7215    1233.7226 
    1750   -585.49055    1233.7227 
    1755   -582.80072    1233.7228 
    1760   -577.99881    1233.7229 
    1765   -582.78086     1233.723 
    1770   -588.83957    1233.7231 
    1775   -601.10324    1233.7232 
    1780   -591.56329    1233.7233 
    1785   -586.23727    1233.7234 
    1790   -582.41332    1233.7235 
    1795   -578.33382    1233.7236 
    1800   -571.68108    1233.7237 
    1805   -552.98216    1233.7239 
    1810    -573.0418     1233.724 
    1815   -584.06968    1233.7241 
    1820   -590.61667    1233.7242 
    1825   -608.49857    1233.7243 
    1830   -583.18022    1233.7244 
    1835   -583.08728    1233.7245 
    1840   -576.58625    1233.7246 
    1845   -585.54611    1233.7248 
    1850   -590.01288    1233.7249 
    1855   -596.13951     1233.725 
    1860   -585.75309    1233.7251 
    1865   -574.14799    1233.7252 
    1870   -586.43816    1233.7253 
    1875    -576.5498    1233.7254 
    1880   -571.94429    1233.7256 
    1885   -576.31712    1233.7257 
    1890   -562.55322    1233.7258 
    1895   -565.01617    1233.7259 
    1900   -589.86278     1233.726 
    1905   -578.11815    1233.7261 
    1910   -561.81108    1233.7262 
    1915   -559.50798    1233.7264 
    1920   -567.77317    1233.7265 
    1925   -574.22321    1233.7266 
    1930   -589.75942    1233.7267 
    1935   -578.71929    1233.7268 
    1940   -572.69629     1233.727 
    1945   -576.62607    1233.7271 
    1950    -581.2522    1233.7272 
    1955   -581.73408    1233.7273 
    1960   -572.97173    1233.7274 
    1965   -586.92238    1233.7276 
    1970    -588.1238    1233.7277 
    1975   -598.92422    1233.7278 
    1980   -572.05607    1233.7279 
    1985   -570.04104     1233.728 
    1990   -570.61183    1233.7282 
    1995   -581.20332    1233.7283 
    2000   -599.18131    1233.7284 
    2005   -596.62026    1233.7285 
    2010   -583.72209    1233.7286 
    2015   -578.58521    1233.7288 
    2020   -594.12963    1233.7289 
    2025   -578.29705     1233.729 
    2030   -587.01498    1233.7291 
    2035   -579.66846    1233.7293 
    2040   -577.84926    1233.7294 
    2045   -566.16377    1233.7295 
    2050   -583.99417    1233.7296 
    2055   -580.41807    1233.7298 
    2060   -582.86839    1233.7299 
    2065   -590.48856      1233.73 
    2070   -602.84151    1233.7301 
    2075   -572.73279    1233.7303 
    2080   -585.29737    1233.7304 
    2085    -593.7618    1233.7305 
    2090   -586.85902    1233.7306 
    2095   -567.49519    1233.7308 
    2100   -590.08848    1233.7309 
    2105   -579.55367     1233.731 
    2110   -586.97761    1233.7311 
    2115   -594.47006    1233.7313 
    2120   -586.56364    1233.7314 
    2125   -584.96014    1233.7315 
    2130   -579.82631    1233.7317 
    2135   -586.39436    1233.7318 
    2140   -575.08183    1233.7319 
    2145   -577.89161     1233.732 
    2150   -577.42107    1233.7322 
    2155   -574.23332    1233.7323 
    2160   -596.11116    1233.7324 
    2165   -594.15749    1233.7326 
    2170     -591.116    1233.7327 
    2175   -586.49486    1233.7328 
    2180   -586.93408     1233.733 
    2185   -597.02462    1233.7331 
    2190   -595.11126    1233.7332 
    2195   -583.47635    1233.7334 
    2200   -567.45434    1233.7335 
    2205   -585.14426    1233.7336 
    2210   -585.53718    1233.7338 
    2215   -595.34716    1233.7339 
    2220   -598.56931     1233.734 
    2225   -605.64245    1233.7342 
    2230   -600.35604    1233.7343 
    2235   -596.05806    1233.7344 
    2240    -583.0424    1233.7346 
    2245   -607.81694    1233.7347 
    2250    -603.2455    1233.7348 
    2255   -578.10141     1233.735 
    2260   -573.67435    1233.7351 
    2265   -583.06237    1233.7352 
    2270   -602.76372    1233.7354 
    2275   -602.25448    1233.7355 
    2280   -595.73365    1233.7356 
    2285   -599.70532    1233.7358 
    2290   -591.05914    1233.7359 
    2295   -611.62168     1233.736 
    2300   -596.64001    1233.7362 
    2305   -566.31505    1233.7363 
    2310   -575.59478    1233.7364 
    2315   -582.02178    1233.7366 
    2320   -594.55916    1233.7367 
    2325   -611.22544    1233.7369 
    2330    -594.2946     1233.737 
    2335   -588.41602    1233.7371 
    2340    -585.0392    1233.7373 
    2345   -576.64352    1233.7374 
    2350   -580.20896    1233.7376 
    2355   -583.25206    1233.7377 
    2360   -579.48808    1233.7378 
    2365   -587.65575     1233.738 
    2370   -593.23389    1233.7381 
    2375   -584.06611    1233.7383 
    2380   -595.49188    1233.7384 
    2385   -586.27568    1233.7385 
    2390     -573.625    1233.7387 
    2395   -593.00734    1233.7388 
    2400   -597.00915     1233.739 
    2405   -607.26388    1233.7391 
    2410   -585.32281    1233.7392 
    2415   -588.14793    1233.7394 
    2420   -587.43727    1233.7395 
    2425   -581.00611    1233.7397 
    2430   -573.95888    1233.7398 
    2435   -586.97688      1233.74 
    2440   -586.17905    1233.7401 
    2445   -583.94667    1233.7402 
    2450   -584.49574    1233.7404 
    2455   -575.58219    1233.7405 
    2460     -596.676    1233.7407 
    2465   -590.25908    1233.7408 
    2470    -596.9002     1233.741 
    2475   -581.99368    1233.7411 
    2480   -583.71135    1233.7413 
    2485   -584.16474    1233.7414 
    2490   -582.22401    1233.7415 
    2495   -595.66788    1233.7417 
    2500   -602.73706    1233.7418 
    2505   -592.86101     1233.742 
    2510   -571.96628    1233.7421 
    2515   -575.09333    1233.7423 
    2520   -593.63674    1233.7424 
    2525   -594.10909    1233.7426 
    2530   -583.11234    1233.7427 
    2535   -581.14027    1233.7429 
    2540   -570.84355     1233.743 
    2545   -582.41694    1233.7432 
    2550   -591.79522    1233.7433 
    2555   -600.74238    1233.7435 
    2560   -600.17427    1233.7436 
    2565   -591.03415    1233.7438 
    2570    -583.0588    1233.7439 
    2575   -592.95423    1233.7441 
    2580   -589.87202    1233.7442 
    2585   -604.92834    1233.7444 
    2590    -593.1805    1233.7445 
    2595   -597.98626    1233.7447 
    2600   -590.95839    1233.7448 
    2605   -582.09828     1233.745 
    2610    -589.9642    1233.7451 
    2615   -589.15023    1233.7453 
    2620   -593.02651    1233.7454 
    2625   -584.89637    1233.7456 
    2630   -578.22274    1233.7458 
    2635   -593.86229    1233.7459 
    2640   -601.44445    1233.7461 
    2645   -597.70287    1233.7462 
    2650   -593.54093    1233.7464 
    2655   -577.06432    1233.7465 
    2660   -583.79298    1233.7467 
    2665   -575.61545    1233.7468 
    2670   -595.90086     1233.747 
    2675   -591.96559    1233.7471 
    2680   -610.29859    1233.7473 
    2685   -587.43395    1233.7475 
    2690   -594.35498    1233.7476 
    2695   -589.70831    1233.7478 
    2700   -583.72277    1233.7479 
    2705   -589.02374    1233.7481 
    2710   -595.79722    1233.7482 
    2715   -591.21934    1233.7484 
    2720   -588.82384    1233.7486 
    2725    -591.8889    1233.7487 
    2730   -589.84101    1233.7489 
    2735   -596.05606     1233.749 
    2740   -591.68445    1233.7492 
    2745   -599.12027    1233.7493 
    2750    -608.4493    1233.7495 
    2755      -565.58    1233.7497 
    2760   -576.07616    1233.7498 
    2765   -585.43679      1233.75 
    2770   -589.46063    1233.7501 
    2775   -600.61068    1233.7503 
    2780   -593.02732    1233.7505 
    2785   -584.33329    1233.7506 
    2790   -593.55851    1233.7508 
    2795   -594.27372     1233.751 
    2800   -599.04468    1233.7511 
    2805   -593.86052    1233.7513 
    2810      -588.04    1233.7514 
    2815   -577.81666    1233.7516 
    2820   -576.92588    1233.7518 
    2825   -579.01942    1233.7519 
    2830   -590.70819    1233.7521 
    2835   -591.97516    1233.7522 
    2840   -602.62823    1233.7524 
    2845   -593.58435    1233.7526 
    2850   -578.55927    1233.7527 
    2855   -570.59454    1233.7529 
    2860   -594.43088    1233.7531 
    2865   -579.78075    1233.7532 
    2870   -584.17898    1233.7534 
    2875   -572.37687    1233.7536 
    2880   -574.48849    1233.7537 
    2885   -581.46157    1233.7539 
    2890    -593.1056    1233.7541 
    2895   -572.73755    1233.7542 
    2900   -580.60303    1233.7544 
    2905   -584.98971    1233.7545 
    2910   -599.71663    1233.7547 
    2915   -594.15908    1233.7549 
    2920   -582.06068     1233.755 
    2925   -589.42976    1233.7552 
    2930    -585.5399    1233.7554 
    2935   -582.28326    1233.7555 
    2940   -588.52142    1233.7557 
    2945   -602.11391    1233.7559 
    2950   -593.93567    1233.7561 
    2955   -578.35929    1233.7562 
    2960   -587.56337    1233.7564 
    2965   -595.49506    1233.7566 
    2970   -590.09936    1233.7567 
    2975   -576.36317    1233.7569 
    2980   -578.13146    1233.7571 
    2985   -578.50352    1233.7572 
    2990    -586.4791    1233.7574 
    2995   -586.11485    1233.7576 
    3000   -591.02121    1233.7577 
    3005    -606.8753    1233.7579 
    3010   -602.14232    1233.7581 
    3015   -585.50495    1233.7583 
    3020   -568.73855    1233.7584 
    3025   -583.82154    1233.7586 
    3030   -590.15131    1233.7588 
    3035    -602.5852    1233.7589 
    3040   -597.88293    1233.7591 
    3045   -588.83681    1233.7593 
    3050   -587.87063    1233.7595 
    3055   -574.84662    1233.7596 
    3060   -580.53371    1233.7598 
    3065   -583.75578      1233.76 
    3070   -569.06087    1233.7602 
    3075   -577.93844    1233.7603 
    3080   -596.58577    1233.7605 
    3085   -594.21209    1233.7607 
    3090   -597.86959    1233.7609 
    3095   -597.70253     1233.761 
    3100   -596.61164    1233.7612 
    3105   -599.76534    1233.7614 
    3110   -606.29492    1233.7616 
    3115   -582.39582    1233.7617 
    3120   -576.90065    1233.7619 
    3125   -577.90425    1233.7621 
    3130   -579.38892    1233.7623 
    3135   -603.79106    1233.7624 
    3140   -587.23193    1233.7626 
    3145   -591.41876    1233.7628 
    3150   -593.20291     1233.763 
    3155   -587.67137    1233.7631 
    3160   -581.47462    1233.7633 
    3165   -599.77689    1233.7635 
    3170   -595.75336    1233.7637 
    3175   -590.92599    1233.7639 
    3180   -601.17413     1233.764 
    3185   -593.29738    1233.7642 
    3190   -597.80974    1233.7644 
    3195   -575.99387    1233.7646 
    3200   -595.15763    1233.7648 
    3205    -599.4357    1233.7649 
    3210   -586.37477    1233.7651 
    3215   -591.29713    1233.7653 
    3220    -589.8852    1233.7655 
    3225    -581.5319    1233.7656 
    3230    -588.5967    1233.7658 
    3235   -581.49662     1233.766 
    3240   -588.01343    1233.7662 
    3245   -576.68958    1233.7664 
    3250   -572.64077    1233.7666 
    3255   -580.10591    1233.7667 
    3260   -597.54119    1233.7669 
    3265   -588.00066    1233.7671 
    3270   -611.47287    1233.7673 
    3275   -606.68916    1233.7675 
    3280   -599.25627    1233.7676 
    3285   -584.34611    1233.7678 
    3290   -575.97654     1233.768 
    3295   -581.00105    1233.7682 
    3300   -584.54297    1233.7684 
    3305   -577.77573    1233.7686 
    3310   -584.33688    1233.7687 
    3315   -565.56265    1233.7689 
    3320   -586.99101    1233.7691 
    3325   -600.16405    1233.7693 
    3330   -589.34394    1233.7695 
    3335   -582.99442    1233.7697 
    3340   -573.90531    1233.7698 
    3345   -587.31038      1233.77 
    3350   -609.76835    1233.7702 
    3355   -601.72342    1233.7704 
    3360   -590.45947    1233.7706 
    3365   -571.67215    1233.7708 
    3370   -567.10495    1233.7709 
    3375   -578.43035    1233.7711 
    3380    -583.1922    1233.7713 
    3385   -584.85452    1233.7715 
    3390   -599.19753    1233.7717 
    3395   -603.05809    1233.7719 
    3400   -596.18836    1233.7721 
    3405   -589.43971    1233.7722 
    3410   -602.59189    1233.7724 
    3415   -580.12768    1233.7726 
    3420   -594.53572    1233.7728 
    3425   -584.48838     1233.773 
    3430   -581.76236    1233.7732 
    3435   -588.94627    1233.7734 
    3440   -596.65392    1233.7736 
    3445   -591.38098    1233.7737 
    3450    -593.2431    1233.7739 
    3455   -598.47263    1233.7741 
    3460   -602.01928    1233.7743 
    3465   -588.11198    1233.7745 
    3470   -579.58446    1233.7747 
    3475    -567.9555    1233.7749 
    3480   -578.13879    1233.7751 
    3485   -607.10533    1233.7753 
    3490   -595.68324    1233.7754 
    3495   -594.90894    1233.7756 
    3500   -587.66451    1233.7758 
    3505   -594.68574     1233.776 
    3510   -576.76663    1233.7762 
    3515   -589.96593    1233.7764 
    3520   -581.08529    1233.7766 
    3525   -585.93446    1233.7768 
    3530   -603.16234     1233.777 
    3535   -599.09944    1233.7772 
    3540   -595.17949    1233.7774 
    3545   -590.95894    1233.7775 
    3550   -585.59786    1233.7777 
    3555   -574.37237    1233.7779 
    3560   -580.11153    1233.7781 
    3565   -585.83937    1233.7783 
    3570   -578.10791    1233.7785 
    3575   -575.84037    1233.7787 
    3580   -593.15093    1233.7789 
    3585    -583.2326    1233.7791 
    3590   -578.21855    1233.7793 
    3595   -570.71414    1233.7795 
    3600   -596.50905    1233.7797 
    3605     -603.481    1233.7799 
    3610   -588.99083    1233.7801 
    3615   -588.57514    1233.7803 
    3620   -570.38502    1233.7804 
    3625   -588.27664    1233.7806 
    3630    -594.7078    1233.7808 
    3635    -592.4839     1233.781 
    3640   -581.48343    1233.7812 
    3645   -599.13195    1233.7814 
    3650   -601.24504    1233.7816 
    3655   -607.96177    1233.7818 
    3660   -586.20213     1233.782 
    3665   -570.22937    1233.7822 
    3670   -577.92914    1233.7824 
    3675   -584.04965    1233.7826 
    3680   -594.58866    1233.7828 
    3685    -596.8589     1233.783 
    3690   -610.69672    1233.7832 
    3695    -579.0124    1233.7834 
    3700   -579.45785    1233.7836 
    3705   -586.41737    1233.7838 
    3710    -589.4805     1233.784 
    3715   -593.79986    1233.7842 
    3720   -593.15378    1233.7844 
    3725   -591.77248    1233.7846 
    3730   -579.45424    1233.7848 
    3735   -593.14871     1233.785 
    3740   -603.87256    1233.7852 
    3745   -594.35536    1233.7854 
    3750   -581.82574    1233.7856 
    3755   -583.92168    1233.7858 
    3760   -589.70136     1233.786 
    3765     -587.788    1233.7862 
    3770   -580.04591    1233.7864 
    3775   -586.36953    1233.7866 
    3780   -591.73726    1233.7868 
    3785    -584.4529     1233.787 
    3790   -589.35669    1233.7872 
    3795   -584.19597    1233.7874 
    3800   -587.87826    1233.7876 
    3805   -581.38079    1233.7878 
    3810   -587.13944     1233.788 
    3815   -584.61196    1233.7882 
    3820   -590.08374    1233.7884 
    3825   -576.08344    1233.7886 
    3830   -575.41108    1233.7888 
    3835   -582.65616     1233.789 
    3840   -599.45053    1233.7892 
    3845   -588.45065    1233.7894 
    3850   -595.77382    1233.7896 
    3855   -588.87601    1233.7898 
    3860   -583.91847      1233.79 
    3865   -588.99559    1233.7902 
    3870   -581.04506    1233.7904 
    3875   -568.21398    1233.7906 
    3880   -582.07834    1233.7908 
    3885   -599.61789     1233.791 
    3890   -593.46356    1233.7912 
    3895   -598.56175    1233.7914 
    3900   -590.35379    1233.7916 
    3905   -584.14539    1233.7918 
    3910   -587.56037     1233.792 
    3915   -596.22432    1233.7922 
    3920   -598.51744    1233.7924 
    3925   -576.72257    1233.7926 
    3930   -586.38565    1233.7928 
    3935    -590.5941    1233.7931 
    3940   -581.15135    1233.7933 
    3945   -589.87749    1233.7935 
    3950   -596.45106    1233.7937 
    3955   -592.54069    1233.7939 
    3960   -597.03558    1233.7941 
    3965   -605.33373    1233.7943 
    3970   -596.43523    1233.7945 
    3975   -598.48912    1233.7947 
    3980   -589.12934    1233.7949 
    3985    -576.3559    1233.7951 
    3990   -575.82516    1233.7953 
    3995   -579.02904    1233.7955 
    4000   -597.57302    1233.7957 
    4005   -573.80012    1233.7959 
    4010   -603.16903    1233.7961 
    4015   -586.05425    1233.7964 
    4020   -580.62845    1233.7966 
    4025   -584.41427    1233.7968 
    4030   -578.93598     1233.797 
    4035   -584.34155    1233.7972 
    4040   -591.01819    1233.7974 
    4045   -583.62495    1233.7976 
    4050   -585.20831    1233.7978 
    4055   -595.80466     1233.798 
    4060   -595.98698    1233.7982 
    4065   -601.75816    1233.7984 
    4070   -575.26411    1233.7986 
    4075   -583.78292    1233.7989 
    4080   -581.97701    1233.7991 
    4085   -589.10111    1233.7993 
    4090   -599.48329    1233.7995 
    4095   -593.56545    1233.7997 
    4100   -577.30288    1233.7999 
    4105   -572.64279    1233.8001 
    4110   -575.37078    1233.8003 
    4115   -576.99992    1233.8005 
    4120   -587.56853    1233.8008 
    4125   -580.45928     1233.801 
    4130   -586.38451    1233.8012 
    4135   -586.44087    1233.8014 
    4140   -589.22404    1233.8016 
    4145   -585.52526    1233.8018 
    4150   -579.30103     1233.802 
    4155   -588.48334    1233.8022 
    4160   -600.35022    1233.8024 
    4165   -584.07632    1233.8027 
    4170   -562.69288    1233.8029 
    4175   -589.78073    1233.8031 
    4180   -589.82064    1233.8033 
    4185   -596.41223    1233.8035 
    4190   -603.37281    1233.8037 
    4195   -605.73281    1233.8039 
    4200   -589.87849    1233.8042 
    4205   -575.00763    1233.8044 
    4210   -573.95343    1233.8046 
    4215   -583.20325    1233.8048 
    4220    -578.2432     1233.805 
    4225   -590.04073    1233.8052 
    4230    -584.3252    1233.8054 
    4235   -591.36698    1233.8057 
    4240   -577.75012    1233.8059 
    4245   -582.02367    1233.8061 
    4250   -576.77811    1233.8063 
    4255   -576.94667    1233.8065 
    4260   -573.96836    1233.8067 
    4265   -574.38607    1233.8069 
    4270   -595.87369    1233.8072 
    4275   -581.28645    1233.8074 
    4280    -586.0354    1233.8076 
    4285   -588.04175    1233.8078 
    4290   -589.36741     1233.808 
    4295   -569.55172    1233.8082 
    4300   -562.64503    1233.8085 
    4305   -585.86682    1233.8087 
    4310   -586.44813    1233.8089 
    4315   -581.81616    1233.8091 
    4320   -580.73223    1233.8093 
    4325   -580.06121    1233.8095 
    4330   -580.94798    1233.8098 
    4335   -575.93059      1233.81 
    4340   -576.60987    1233.8102 
    4345   -584.23151    1233.8104 
    4350   -576.00395    1233.8106 
    4355   -580.36089    1233.8108 
    4360   -590.52753    1233.8111 
    4365   -576.84673    1233.8113 
    4370   -580.18506    1233.8115 
    4375   -595.64888    1233.8117 
    4380   -577.61119    1233.8119 
    4385   -589.17767    1233.8122 
    4390   -584.98688    1233.8124 
    4395   -574.09123    1233.8126 
    4400   -595.11139    1233.8128 
    4405   -595.29696     1233.813 
    4410   -599.58558    1233.8133 
    4415   -576.66095    1233.8135 
    4420   -581.96632    1233.8137 
    4425    -583.4744    1233.8139 
    4430   -581.56373    1233.8142 
    4435   -579.75405    1233.8144 
    4440    -575.5364    1233.8146 
    4445   -556.80109    1233.8148 
    4450   -575.49416     1233.815 
    4455   -589.76865    1233.8153 
    4460   -590.31611    1233.8155 
    4465   -578.36481    1233.8157 
    4470   -541.27208    1233.8159 
    4475   -568.47662    1233.8162 
    4480   -581.85651    1233.8164 
    4485   -591.20418    1233.8166 
    4490   -575.26654    1233.8168 
    4495   -575.64778    1233.8171 
    4500   -590.60479    1233.8173 
    4505    -586.8611    1233.8175 
    4510   -595.94643    1233.8177 
    4515   -596.53004     1233.818 
    4520   -586.95567    1233.8182 
    4525   -587.85971    1233.8184 
    4530   -588.65094    1233.8186 
    4535   -590.33203    1233.8189 
    4540    -592.3902    1233.8191 
    4545   -582.18458    1233.8193 
    4550   -585.34932    1233.8195 
    4555   -573.11409    1233.8198 
    4560   -585.23666      1233.82 
    4565   -593.29298    1233.8202 
    4570   -608.71425    1233.8204 
    4575   -589.98399    1233.8207 
    4580   -574.85144    1233.8209 
    4585   -571.03634    1233.8211 
    4590    -587.0067    1233.8214 
    4595   -598.53458    1233.8216 
    4600   -578.42786    1233.8218 
    4605   -574.45003     1233.822 
    4610   -591.63334    1233.8223 
    4615   -581.88857    1233.8225 
    4620   -594.44529    1233.8227 
    4625   -604.41388     1233.823 
    4630   -589.64497    1233.8232 
    4635   -580.14631    1233.8234 
    4640   -582.20925    1233.8237 
    4645   -578.30363    1233.8239 
    4650   -574.30148    1233.8241 
    4655   -588.73903    1233.8244 
    4660   -589.33541    1233.8246 
    4665    -595.1906    1233.8248 
    4670   -592.47801     1233.825 
    4675    -576.2264    1233.8253 
    4680   -579.93981    1233.8255 
    4685   -587.98693    1233.8257 
    4690   -572.07991     1233.826 
    4695   -576.51444    1233.8262 
    4700    -582.4164    1233.8264 
    4705   -592.16501    1233.8267 
    4710   -576.63706    1233.8269 
    4715   -578.96465    1233.8271 
    4720   -592.10862    1233.8274 
    4725   -576.56317    1233.8276 
    4730   -585.14236    1233.8279 
    4735   -567.96702    1233.8281 
    4740   -568.65391    1233.8283 
    4745   -586.85171    1233.8286 
    4750   -600.24211    1233.8288 
    4755   -592.02196     1233.829 
    4760   -595.47265    1233.8293 
    4765   -568.12322    1233.8295 
    4770   -583.37128    1233.8297 
    4775   -592.59643      1233.83 
    4780    -587.3507    1233.8302 
    4785   -564.76792    1233.8304 
    4790   -571.37633    1233.8307 
    4795   -582.31919    1233.8309 
    4800   -584.47129    1233.8312 
    4805    -578.7539    1233.8314 
    4810   -582.86955    1233.8316 
    4815   -584.21307    1233.8319 
    4820   -583.48464    1233.8321 
    4825   -575.79158    1233.8323 
    4830   -584.68749    1233.8326 
    4835   -589.75606    1233.8328 
    4840   -592.15123    1233.8331 
    4845   -581.00651    1233.8333 
    4850     -585.378    1233.8335 
    4855   -596.56175    1233.8338 
    4860      -593.72     1233.834 
    4865   -592.90683    1233.8343 
    4870    -585.7483    1233.8345 
    4875   -577.70887    1233.8347 
    4880   -565.70366     1233.835 
    4885     -571.165    1233.8352 
    4890   -578.22469    1233.8355 
    4895   -583.34579    1233.8357 
    4900    -580.8457    1233.8359 
    4905   -581.98799    1233.8362 
    4910   -573.26684    1233.8364 
    4915   -593.63529    1233.8367 
    4920   -583.56173    1233.8369 
    4925   -588.50151    1233.8371 
    4930   -572.19565    1233.8374 
    4935   -576.03878    1233.8376 
    4940   -589.28453    1233.8379 
    4945   -583.82698    1233.8381 
    4950   -577.38414    1233.8384 
    4955   -573.12196    1233.8386 
    4960   -572.25429    1233.8388 
    4965   -577.48949    1233.8391 
    4970   -597.71244    1233.8393 
    4975   -593.20177    1233.8396 
    4980   -579.25319    1233.8398 
    4985   -582.50307    1233.8401 
    4990   -581.19401    1233.8403 
    4995   -596.29472    1233.8405 
    5000   -598.27788    1233.8408 
Loop time of 3597.44 on 1 procs for 5000 steps with 108 atoms

Pair  time (%) = 69.1599 (1.92247)
Neigh time (%) = 1.16271 (0.0323204)
Comm  time (%) = 0.327572 (0.00910569)
Outpt time (%) = 1.18702 (0.0329963)
Other time (%) = 3525.61 (98.0031)

Nlocal:    108 ave 108 max 108 min
Histogram: 1 0 0 0 0 0 0 0 0 0
Nghost:    4990 ave 4990 max 4990 min
Histogram: 1 0 0 0 0 0 0 0 0 0
Neighs:    54455 ave 54455 max 54455 min
Histogram: 1 0 0 0 0 0 0 0 0 0
FullNghs:  108910 ave 108910 max 108910 min
Histogram: 1 0 0 0 0 0 0 0 0 0

Total # of neighbors = 108910
Ave neighs/atom = 1008.43
Neighbor list builds = 250
Dangerous builds = 0

print "Final potential energy = $e"
Final potential energy = -634.98798592164291676
print "Final total energy = $t"
Final total energy = -598.2778789250301088
print "                        "
                        
print "  !!!!  FINISHED  !!!!  "
  !!!!  FINISHED  !!!!  
print "                        "
                        

#fix				freeze all setforce 0.0 0.0 0.0

print "Initial potential energy = $e"
Initial potential energy = -634.98798592164291676

#fix             4 all ave/time 1 1 1 c_pairdist file SiO2test.rdf mode vector start 1 
#
#min_style		cg
#minimize        1.0e-9 1.0e-14 9000 9000000

# thermo          30
# print "Initial potential energy = $e"
# print "Initial total energy = $e"
# run             150
