
         
 *******************************************************************************
 *                                                                             *
 *                                CRYSTAL06                                    *
 *                          Release 1.0 - v1_0_2
                            Sequential executable                              *
 *                                                                             *
 *                          Compiled:  05 apr 2007 12:10                       *
 *                          Xmake: Linux-pgf_mpich_1.2.7_p4.fedora2_2.6        *
 *                                                                             *
 *                                                                             *
 *                              MAIN AUTHORS                                   *
 *                                                                             *
 *    R. DOVESI(1,10), V.R. SAUNDERS(2), C. ROETTI(1,10), R. ORLANDO (1,3),    *
 *  C.M. ZICOVICH-WILSON(1,4), F. PASCALE(5), B. CIVALLERI(1,10), K. DOLL(6),  *
 *       N.M. HARRISON(2,7), I. J. BUSH(2), Ph. D'ARCO(8), M. LLUNELL(9)       *
 *                                                                             *
 * (1) THEORETICAL CHEMISTRY GROUP - UNIVERSITA' DI TORINO - TORINO (ITALY)    *
 *      http://www.crystal.unito.it                                            *
 * (2) COMPUTATIONAL SCIENCE & ENGINEERING DEPARTMENT - CCLRC DARESBURY (UK)   *
 *     http://www.cse.clrc.ac.uk/cmg/CRYSTAL/                                  *
 * (3) UNIVERSITA' DEL PIEMONTE ORIENTALE - ALESSANDRIA (ITALY)                *
 * (4) UNIVERSIDAD AUTONOMA DEL ESTADO DE MORELOS - CUERNAVACA (MEXICO)        *
 * (5) UNIVERSITE' HENRI POINCARE' - NANCY (FRANCE)                            *
 * (6) MPI FUER FESTKOERPERFORSCHUNG - STUTTGART (GERMANY)                     *
 * (7) IMPERIAL COLLEGE - LONDON (UK)                                          *
 * (8) UNIVERSITE' PIERRE ET MARIE CURIE - PARIS (FRANCE)                      *
 * (9) UNIVERSIDAD DE BARCELONA - BARCELONA (SPAIN)                            *
 *(10) NIS - NANOSTRUCTURED INTERFACES AND SURFACES - TORINO (ITALY)           *
 *     http://www.crystal.unito.it                                             *
 *******************************************************************************
 EEEEEEEEEE STARTING  DATE 15 10 2013 TIME 16:19:57.2
 Created with astools                                                            

 CRYSTAL CALCULATION
 (INPUT ACCORDING TO THE INTERNATIONAL TABLES FOR X-RAY CRYSTALLOGRAPHY)
 CRYSTAL FAMILY                       :  TRICLINIC   
 CRYSTAL CLASS  (GROTH - 1921)        :  TRICLINIC PEDIAL                     

 SPACE GROUP (NONCENTROSYMMETRIC)     :  P 1             

 LATTICE PARAMETERS  (ANGSTROMS AND DEGREES) - CONVENTIONAL CELL
        A           B           C        ALPHA        BETA       GAMMA
    10.84000    10.84000    18.34520    90.00000    90.00000    90.00000


 NUMBER OF IRREDUCIBLE ATOMS IN THE CONVENTIONAL CELL:  132

 INPUT COORDINATES

 ATOM AT. N.              COORDINATES
   1   8     1.494360000000E-01  1.350400000000E-02  7.209600000000E-01
   2   8     3.568710000000E-01  1.608830000000E-01  5.884590000000E-01
   3   8     9.413360000000E-01  4.818760000000E-01  8.276040000000E-01
   4   8     2.317600000000E-01  3.389270000000E-01  5.244680000000E-01
   5   8     1.059260000000E-01  1.044190000000E-01  5.741470000000E-01
   6   8     4.752410000000E-01  9.498890000000E-01  6.212200000000E-01
   7   8     9.213680000000E-01  9.993180000000E-01  7.559450000000E-01
   8   8     1.798360000000E-01  3.216720000000E-01  6.574650000000E-01
   9   8     2.094130000000E-01  4.382940000000E-01  8.851130000000E-01
  10   8     3.220120000000E-01  9.359040000000E-01  5.030060000000E-01
  11   8     4.195580000000E-01  3.849060000000E-01  6.383910000000E-01
  12   8     3.201140000000E-01  2.539550000000E-01  7.983080000000E-01
  13   8     2.031230000000E-01  5.022950000000E-01  7.503330000000E-01
  14   8     3.527920000000E-01  7.106450000000E-01  4.866300000000E-01
  15   8     8.685550000000E-01  9.038480000000E-01  9.662710000000E-01
  16   8     1.272940000000E-01  8.218870000000E-01  4.639090000000E-01
  17   8     1.299300000000E-01  5.750620000000E-01  5.280160000000E-01
  18   8     4.883420000000E-01  5.863650000000E-01  5.823410000000E-01
  19   8     9.523100000000E-02  6.647660000000E-01  8.604090000000E-01
  20   8     1.858450000000E-01  8.219230000000E-01  6.024560000000E-01
  21   8     3.217180000000E-01  8.701700000000E-01  9.443250000000E-01
  22   8     3.814270000000E-01  4.878850000000E-01  4.731410000000E-01
  23   8     6.076910000000E-01  8.598270000000E-01  7.395310000000E-01
  24   8     3.247440000000E-01  7.510250000000E-01  8.216630000000E-01
  25   8     7.231640000000E-01  8.956900000000E-02  7.221840000000E-01
  26   8     8.631500000000E-01  2.261740000000E-01  5.875120000000E-01
  27   8     4.290080000000E-01  4.603850000000E-01  8.130560000000E-01
  28   8     6.858910000000E-01  3.343120000000E-01  4.868010000000E-01
  29   8     6.091210000000E-01  1.136800000000E-01  5.616480000000E-01
  30   8     9.640690000000E-01  9.310050000000E-01  6.204400000000E-01
  31   8     5.421530000000E-01  1.851910000000E-01  8.277770000000E-01
  32   8     6.602210000000E-01  3.736820000000E-01  6.151360000000E-01
  33   8     7.236210000000E-01  4.369580000000E-01  9.020020000000E-01
  34   8     9.106950000000E-01  8.979100000000E-02  4.796640000000E-01
  35   8    -1.888000000000E-02  3.580680000000E-01  7.305940000000E-01
  36   8     7.378680000000E-01  3.139760000000E-01  7.657800000000E-01
  37   8     6.262130000000E-01  5.892680000000E-01  6.802430000000E-01
  38   8     9.005970000000E-01  7.002470000000E-01  5.705160000000E-01
  39   8     3.807740000000E-01  1.010046000000E+00  8.275000000000E-01
  40   8     7.523360000000E-01  9.026060000000E-01  5.636290000000E-01
  41   8     6.313400000000E-01  5.775870000000E-01  4.559970000000E-01
  42   8     1.028527000000E+00  5.234230000000E-01  6.349120000000E-01
  43   8     5.999850000000E-01  6.525940000000E-01  8.109280000000E-01
  44   8     7.945960000000E-01  7.851530000000E-01  6.959870000000E-01
  45   8     6.416320000000E-01  4.686500000000E-02  9.621250000000E-01
  46   8     8.613160000000E-01  4.653330000000E-01  5.457730000000E-01
  47   8     1.415070000000E-01  7.735410000000E-01  7.319500000000E-01
  48   8     7.297850000000E-01  9.588230000000E-01  8.437630000000E-01
  49   8     3.050800000000E-02  5.101660000000E-01  9.716710000000E-01
  50   8     9.319030000000E-01  2.235190000000E-01  8.414640000000E-01
  51   8     7.224400000000E-02  8.127500000000E-02  9.657370000000E-01
  52   8     8.831740000000E-01  6.389930000000E-01  9.341080000000E-01
  53   8     5.058290000000E-01  5.822710000000E-01  9.405510000000E-01
  54   8     3.789630000000E-01  2.004940000000E-01  9.383460000000E-01
  55   8     5.284890000000E-01  1.867970000000E-01  6.885080000000E-01
  56   8     5.372080000000E-01  8.562450000000E-01  8.970460000000E-01
  57  14     1.303420000000E-01  1.378080000000E-01  5.201000000000E-02
  58  14     3.100200000000E-01  2.597460000000E-01  7.133000000000E-03
  59  14     2.028290000000E-01  4.240690000000E-01  1.061320000000E-01
  60  14     4.350940000000E-01  1.946850000000E-01  1.073150000000E-01
  61  14     6.448700000000E-02  3.142370000000E-01  1.865320000000E-01
  62  14     3.191120000000E-01  5.796000000000E-02  1.810820000000E-01
  63  14     1.896000000000E-01  1.782550000000E-01  2.544060000000E-01
  64  14     4.370490000000E-01  4.383370000000E-01  2.540940000000E-01
  65  14     8.822400000000E-02  5.801370000000E-01  4.567200000000E-02
  66  14     2.826090000000E-01  8.067310000000E-01  2.515300000000E-02
  67  14     1.925210000000E-01  9.405500000000E-01  1.075560000000E-01
  68  14     4.324260000000E-01  7.026510000000E-01  9.702000000000E-02
  69  14     6.034400000000E-02  8.176450000000E-01  1.810660000000E-01
  70  14     3.185110000000E-01  5.635140000000E-01  1.774010000000E-01
  71  14     1.875060000000E-01  6.860040000000E-01  2.492580000000E-01
  72  14     4.393340000000E-01  9.414550000000E-01  2.549560000000E-01
  73  14     5.776950000000E-01  5.558700000000E-02  4.635300000000E-02
  74  14     8.062380000000E-01  3.221440000000E-01  2.926900000000E-02
  75  14     6.781420000000E-01  4.274450000000E-01  1.065530000000E-01
  76  14     9.325600000000E-01  1.996440000000E-01  1.102410000000E-01
  77  14     5.638200000000E-01  3.095130000000E-01  1.854430000000E-01
  78  14     8.107920000000E-01  6.563800000000E-02  1.852620000000E-01
  79  14     6.875150000000E-01  1.889000000000E-01  2.611220000000E-01
  80  14     9.334640000000E-01  4.371300000000E-01  2.573100000000E-01
  81  14     5.636860000000E-01  5.550180000000E-01  2.344800000000E-02
  82  14     7.829330000000E-01  8.090640000000E-01  2.017400000000E-02
  83  14     6.910300000000E-01  9.300090000000E-01  1.159080000000E-01
  84  14     9.288360000000E-01  6.964630000000E-01  1.028400000000E-01
  85  14     5.635520000000E-01  8.083820000000E-01  1.874250000000E-01
  86  14     8.024750000000E-01  5.610280000000E-01  1.798030000000E-01
  87  14     6.895010000000E-01  6.843460000000E-01  2.645160000000E-01
  88  14     9.300040000000E-01  9.341330000000E-01  2.562140000000E-01
  89  14     3.963600000000E-02  7.145500000000E-02  3.233000000000E-01
  90  14     3.237050000000E-01  2.975310000000E-01  3.228100000000E-01
  91  14     1.340490000000E-01  4.003380000000E-01  3.586790000000E-01
  92  14     4.601460000000E-01  2.079680000000E-01  4.125280000000E-01
  93  14     3.909700000000E-02  5.875710000000E-01  3.209030000000E-01
  94  14     2.951350000000E-01  8.298880000000E-01  3.206790000000E-01
  95  14     1.530710000000E-01  9.328780000000E-01  3.941890000000E-01
  96  14     4.627920000000E-01  7.549670000000E-01  3.928020000000E-01
  97  14     5.522840000000E-01  7.044400000000E-02  3.278750000000E-01
  98  14     8.151960000000E-01  3.090790000000E-01  3.410070000000E-01
  99  14     6.885130000000E-01  4.485790000000E-01  4.211890000000E-01
 100  14     9.550760000000E-01  1.943440000000E-01  4.089100000000E-01
 101  14     5.573290000000E-01  5.540990000000E-01  3.344850000000E-01
 102  14     8.196590000000E-01  8.090820000000E-01  3.425640000000E-01
 103  14     6.464440000000E-01  9.156340000000E-01  3.982270000000E-01
 104  14     9.300720000000E-01  6.698050000000E-01  4.201040000000E-01
 105  14     1.647200000000E-02  9.757000000000E-02  7.798570000000E-01
 106  14     4.961140000000E-01  9.690000000000E-02  6.170940000000E-01
 107  14     2.972370000000E-01  2.994000000000E-01  6.021630000000E-01
 108  14     2.886670000000E-01  3.987210000000E-01  8.119430000000E-01
 109  14     7.684400000000E-01  9.639800000000E-01  7.584430000000E-01
 110  14     2.907290000000E-01  5.895100000000E-02  4.545930000000E-01
 111  14     1.913630000000E-01  6.918520000000E-01  7.985110000000E-01
 112  14     4.751280000000E-01  6.033660000000E-01  4.941620000000E-01
 113  14     2.463530000000E-01  8.107670000000E-01  5.214940000000E-01
 114  14     3.993420000000E-01  8.699720000000E-01  8.663020000000E-01
 115  14     5.500300000000E-01  4.731780000000E-01  6.296750000000E-01
 116  14     2.252240000000E-01  4.724930000000E-01  4.816330000000E-01
 117  14     6.310070000000E-01  2.001880000000E-01  7.533190000000E-01
 118  14     9.658510000000E-01  1.212880000000E-01  5.666980000000E-01
 119  14     7.742740000000E-01  3.483590000000E-01  5.592280000000E-01
 120  14     8.773370000000E-01  3.442250000000E-01  8.005840000000E-01
 121  14     1.211820000000E-01  8.939060000000E-01  6.726510000000E-01
 122  14     6.677770000000E-01 -2.325000000000E-03  5.170750000000E-01
 123  14     6.433160000000E-01  7.162420000000E-01  7.277760000000E-01
 124  14     9.784900000000E-01  5.692090000000E-01  5.549380000000E-01
 125  14     8.551100000000E-01  8.256330000000E-01  6.137220000000E-01
 126  14     6.784180000000E-01  9.107520000000E-01  9.230590000000E-01
 127  14     9.403600000000E-02  4.320390000000E-01  6.908870000000E-01
 128  14     7.810850000000E-01  5.374680000000E-01  9.607690000000E-01
 129  14     1.022888000000E+00  9.346600000000E-01  9.712680000000E-01
 130  14     2.302000000000E-03  5.586100000000E-01  8.910770000000E-01
 131  14     3.985360000000E-01  1.573480000000E-01  8.526280000000E-01
 132  14     5.245020000000E-01  5.485300000000E-01  8.560230000000E-01

 *******************************************************************************

 << INFORMATION >>: FROM NOW ON, ALL COORDINATES REFER TO THE PRIMITIVE CELL

 *******************************************************************************

 LATTICE PARAMETERS  (ANGSTROMS AND DEGREES) - PRIMITIVE CELL
       A          B          C         ALPHA     BETA     GAMMA        VOLUME
   10.84000   10.84000   18.34520    90.00000  90.00000  90.00000   2155.663733

 COORDINATES OF THE EQUIVALENT ATOMS (FRACTIONARY UNITS)

 N. ATOM EQUIV AT. N.          X                  Y                  Z

   1   1   1    8 O     1.49436000000E-01  1.35040000000E-02 -2.79040000000E-01

   2   2   1    8 O     3.56871000000E-01  1.60883000000E-01 -4.11541000000E-01

   3   3   1    8 O    -5.86640000000E-02  4.81876000000E-01 -1.72396000000E-01

   4   4   1    8 O     2.31760000000E-01  3.38927000000E-01 -4.75532000000E-01

   5   5   1    8 O     1.05926000000E-01  1.04419000000E-01 -4.25853000000E-01

   6   6   1    8 O     4.75241000000E-01 -5.01110000000E-02 -3.78780000000E-01

   7   7   1    8 O    -7.86320000000E-02 -6.82000000000E-04 -2.44055000000E-01

   8   8   1    8 O     1.79836000000E-01  3.21672000000E-01 -3.42535000000E-01

   9   9   1    8 O     2.09413000000E-01  4.38294000000E-01 -1.14887000000E-01

  10  10   1    8 O     3.22012000000E-01 -6.40960000000E-02 -4.96994000000E-01

  11  11   1    8 O     4.19558000000E-01  3.84906000000E-01 -3.61609000000E-01

  12  12   1    8 O     3.20114000000E-01  2.53955000000E-01 -2.01692000000E-01

  13  13   1    8 O     2.03123000000E-01 -4.97705000000E-01 -2.49667000000E-01

  14  14   1    8 O     3.52792000000E-01 -2.89355000000E-01  4.86630000000E-01

  15  15   1    8 O    -1.31445000000E-01 -9.61520000000E-02 -3.37290000000E-02

  16  16   1    8 O     1.27294000000E-01 -1.78113000000E-01  4.63909000000E-01

  17  17   1    8 O     1.29930000000E-01 -4.24938000000E-01 -4.71984000000E-01

  18  18   1    8 O     4.88342000000E-01 -4.13635000000E-01 -4.17659000000E-01

  19  19   1    8 O     9.52310000000E-02 -3.35234000000E-01 -1.39591000000E-01

  20  20   1    8 O     1.85845000000E-01 -1.78077000000E-01 -3.97544000000E-01

  21  21   1    8 O     3.21718000000E-01 -1.29830000000E-01 -5.56750000000E-02

  22  22   1    8 O     3.81427000000E-01  4.87885000000E-01  4.73141000000E-01

  23  23   1    8 O    -3.92309000000E-01 -1.40173000000E-01 -2.60469000000E-01

  24  24   1    8 O     3.24744000000E-01 -2.48975000000E-01 -1.78337000000E-01

  25  25   1    8 O    -2.76836000000E-01  8.95690000000E-02 -2.77816000000E-01

  26  26   1    8 O    -1.36850000000E-01  2.26174000000E-01 -4.12488000000E-01

  27  27   1    8 O     4.29008000000E-01  4.60385000000E-01 -1.86944000000E-01

  28  28   1    8 O    -3.14109000000E-01  3.34312000000E-01  4.86801000000E-01

  29  29   1    8 O    -3.90879000000E-01  1.13680000000E-01 -4.38352000000E-01

  30  30   1    8 O    -3.59310000000E-02 -6.89950000000E-02 -3.79560000000E-01

  31  31   1    8 O    -4.57847000000E-01  1.85191000000E-01 -1.72223000000E-01

  32  32   1    8 O    -3.39779000000E-01  3.73682000000E-01 -3.84864000000E-01

  33  33   1    8 O    -2.76379000000E-01  4.36958000000E-01 -9.79980000000E-02

  34  34   1    8 O    -8.93050000000E-02  8.97910000000E-02  4.79664000000E-01

  35  35   1    8 O    -1.88800000000E-02  3.58068000000E-01 -2.69406000000E-01

  36  36   1    8 O    -2.62132000000E-01  3.13976000000E-01 -2.34220000000E-01

  37  37   1    8 O    -3.73787000000E-01 -4.10732000000E-01 -3.19757000000E-01

  38  38   1    8 O    -9.94030000000E-02 -2.99753000000E-01 -4.29484000000E-01

  39  39   1    8 O     3.80774000000E-01  1.00460000000E-02 -1.72500000000E-01

  40  40   1    8 O    -2.47664000000E-01 -9.73940000000E-02 -4.36371000000E-01

  41  41   1    8 O    -3.68660000000E-01 -4.22413000000E-01  4.55997000000E-01

  42  42   1    8 O     2.85270000000E-02 -4.76577000000E-01 -3.65088000000E-01

  43  43   1    8 O    -4.00015000000E-01 -3.47406000000E-01 -1.89072000000E-01

  44  44   1    8 O    -2.05404000000E-01 -2.14847000000E-01 -3.04013000000E-01

  45  45   1    8 O    -3.58368000000E-01  4.68650000000E-02 -3.78750000000E-02

  46  46   1    8 O    -1.38684000000E-01  4.65333000000E-01 -4.54227000000E-01

  47  47   1    8 O     1.41507000000E-01 -2.26459000000E-01 -2.68050000000E-01

  48  48   1    8 O    -2.70215000000E-01 -4.11770000000E-02 -1.56237000000E-01

  49  49   1    8 O     3.05080000000E-02 -4.89834000000E-01 -2.83290000000E-02

  50  50   1    8 O    -6.80970000000E-02  2.23519000000E-01 -1.58536000000E-01

  51  51   1    8 O     7.22440000000E-02  8.12750000000E-02 -3.42630000000E-02

  52  52   1    8 O    -1.16826000000E-01 -3.61007000000E-01 -6.58920000000E-02

  53  53   1    8 O    -4.94171000000E-01 -4.17729000000E-01 -5.94490000000E-02

  54  54   1    8 O     3.78963000000E-01  2.00494000000E-01 -6.16540000000E-02

  55  55   1    8 O    -4.71511000000E-01  1.86797000000E-01 -3.11492000000E-01

  56  56   1    8 O    -4.62792000000E-01 -1.43755000000E-01 -1.02954000000E-01

  57  57   1   14 SI    1.30342000000E-01  1.37808000000E-01  5.20100000000E-02

  58  58   1   14 SI    3.10020000000E-01  2.59746000000E-01  7.13300000000E-03

  59  59   1   14 SI    2.02829000000E-01  4.24069000000E-01  1.06132000000E-01

  60  60   1   14 SI    4.35094000000E-01  1.94685000000E-01  1.07315000000E-01

  61  61   1   14 SI    6.44870000000E-02  3.14237000000E-01  1.86532000000E-01

  62  62   1   14 SI    3.19112000000E-01  5.79600000000E-02  1.81082000000E-01

  63  63   1   14 SI    1.89600000000E-01  1.78255000000E-01  2.54406000000E-01

  64  64   1   14 SI    4.37049000000E-01  4.38337000000E-01  2.54094000000E-01

  65  65   1   14 SI    8.82240000000E-02 -4.19863000000E-01  4.56720000000E-02

  66  66   1   14 SI    2.82609000000E-01 -1.93269000000E-01  2.51530000000E-02

  67  67   1   14 SI    1.92521000000E-01 -5.94500000000E-02  1.07556000000E-01

  68  68   1   14 SI    4.32426000000E-01 -2.97349000000E-01  9.70200000000E-02

  69  69   1   14 SI    6.03440000000E-02 -1.82355000000E-01  1.81066000000E-01

  70  70   1   14 SI    3.18511000000E-01 -4.36486000000E-01  1.77401000000E-01

  71  71   1   14 SI    1.87506000000E-01 -3.13996000000E-01  2.49258000000E-01

  72  72   1   14 SI    4.39334000000E-01 -5.85450000000E-02  2.54956000000E-01

  73  73   1   14 SI   -4.22305000000E-01  5.55870000000E-02  4.63530000000E-02

  74  74   1   14 SI   -1.93762000000E-01  3.22144000000E-01  2.92690000000E-02

  75  75   1   14 SI   -3.21858000000E-01  4.27445000000E-01  1.06553000000E-01

  76  76   1   14 SI   -6.74400000000E-02  1.99644000000E-01  1.10241000000E-01

  77  77   1   14 SI   -4.36180000000E-01  3.09513000000E-01  1.85443000000E-01

  78  78   1   14 SI   -1.89208000000E-01  6.56380000000E-02  1.85262000000E-01

  79  79   1   14 SI   -3.12485000000E-01  1.88900000000E-01  2.61122000000E-01

  80  80   1   14 SI   -6.65360000000E-02  4.37130000000E-01  2.57310000000E-01

  81  81   1   14 SI   -4.36314000000E-01 -4.44982000000E-01  2.34480000000E-02

  82  82   1   14 SI   -2.17067000000E-01 -1.90936000000E-01  2.01740000000E-02

  83  83   1   14 SI   -3.08970000000E-01 -6.99910000000E-02  1.15908000000E-01

  84  84   1   14 SI   -7.11640000000E-02 -3.03537000000E-01  1.02840000000E-01

  85  85   1   14 SI   -4.36448000000E-01 -1.91618000000E-01  1.87425000000E-01

  86  86   1   14 SI   -1.97525000000E-01 -4.38972000000E-01  1.79803000000E-01

  87  87   1   14 SI   -3.10499000000E-01 -3.15654000000E-01  2.64516000000E-01

  88  88   1   14 SI   -6.99960000000E-02 -6.58670000000E-02  2.56214000000E-01

  89  89   1   14 SI    3.96360000000E-02  7.14550000000E-02  3.23300000000E-01

  90  90   1   14 SI    3.23705000000E-01  2.97531000000E-01  3.22810000000E-01

  91  91   1   14 SI    1.34049000000E-01  4.00338000000E-01  3.58679000000E-01

  92  92   1   14 SI    4.60146000000E-01  2.07968000000E-01  4.12528000000E-01

  93  93   1   14 SI    3.90970000000E-02 -4.12429000000E-01  3.20903000000E-01

  94  94   1   14 SI    2.95135000000E-01 -1.70112000000E-01  3.20679000000E-01

  95  95   1   14 SI    1.53071000000E-01 -6.71220000000E-02  3.94189000000E-01

  96  96   1   14 SI    4.62792000000E-01 -2.45033000000E-01  3.92802000000E-01

  97  97   1   14 SI   -4.47716000000E-01  7.04440000000E-02  3.27875000000E-01

  98  98   1   14 SI   -1.84804000000E-01  3.09079000000E-01  3.41007000000E-01

  99  99   1   14 SI   -3.11487000000E-01  4.48579000000E-01  4.21189000000E-01

 100 100   1   14 SI   -4.49240000000E-02  1.94344000000E-01  4.08910000000E-01

 101 101   1   14 SI   -4.42671000000E-01 -4.45901000000E-01  3.34485000000E-01

 102 102   1   14 SI   -1.80341000000E-01 -1.90918000000E-01  3.42564000000E-01

 103 103   1   14 SI   -3.53556000000E-01 -8.43660000000E-02  3.98227000000E-01

 104 104   1   14 SI   -6.99280000000E-02 -3.30195000000E-01  4.20104000000E-01

 105 105   1   14 SI    1.64720000000E-02  9.75700000000E-02 -2.20143000000E-01

 106 106   1   14 SI    4.96114000000E-01  9.69000000000E-02 -3.82906000000E-01

 107 107   1   14 SI    2.97237000000E-01  2.99400000000E-01 -3.97837000000E-01

 108 108   1   14 SI    2.88667000000E-01  3.98721000000E-01 -1.88057000000E-01

 109 109   1   14 SI   -2.31560000000E-01 -3.60200000000E-02 -2.41557000000E-01

 110 110   1   14 SI    2.90729000000E-01  5.89510000000E-02  4.54593000000E-01

 111 111   1   14 SI    1.91363000000E-01 -3.08148000000E-01 -2.01489000000E-01

 112 112   1   14 SI    4.75128000000E-01 -3.96634000000E-01  4.94162000000E-01

 113 113   1   14 SI    2.46353000000E-01 -1.89233000000E-01 -4.78506000000E-01

 114 114   1   14 SI    3.99342000000E-01 -1.30028000000E-01 -1.33698000000E-01

 115 115   1   14 SI   -4.49970000000E-01  4.73178000000E-01 -3.70325000000E-01

 116 116   1   14 SI    2.25224000000E-01  4.72493000000E-01  4.81633000000E-01

 117 117   1   14 SI   -3.68993000000E-01  2.00188000000E-01 -2.46681000000E-01

 118 118   1   14 SI   -3.41490000000E-02  1.21288000000E-01 -4.33302000000E-01

 119 119   1   14 SI   -2.25726000000E-01  3.48359000000E-01 -4.40772000000E-01

 120 120   1   14 SI   -1.22663000000E-01  3.44225000000E-01 -1.99416000000E-01

 121 121   1   14 SI    1.21182000000E-01 -1.06094000000E-01 -3.27349000000E-01

 122 122   1   14 SI   -3.32223000000E-01 -2.32500000000E-03 -4.82925000000E-01

 123 123   1   14 SI   -3.56684000000E-01 -2.83758000000E-01 -2.72224000000E-01

 124 124   1   14 SI   -2.15100000000E-02 -4.30791000000E-01 -4.45062000000E-01

 125 125   1   14 SI   -1.44890000000E-01 -1.74367000000E-01 -3.86278000000E-01

 126 126   1   14 SI   -3.21582000000E-01 -8.92480000000E-02 -7.69410000000E-02

 127 127   1   14 SI    9.40360000000E-02  4.32039000000E-01 -3.09113000000E-01

 128 128   1   14 SI   -2.18915000000E-01 -4.62532000000E-01 -3.92310000000E-02

 129 129   1   14 SI    2.28880000000E-02 -6.53400000000E-02 -2.87320000000E-02

 130 130   1   14 SI    2.30200000000E-03 -4.41390000000E-01 -1.08923000000E-01

 131 131   1   14 SI    3.98536000000E-01  1.57348000000E-01 -1.47372000000E-01

 132 132   1   14 SI   -4.75498000000E-01 -4.51470000000E-01 -1.43977000000E-01

 NUMBER OF SYMMETRY OPERATORS         :    1
 *******************************************************************************
 * GEOMETRY EDITING - INPUT COORDINATES ARE GIVEN IN ANGSTROM          
 *******************************************************************************
 INFORMATION **** NEIGHPRT **** neighbors in geometry analysis        10
 INFORMATION **** FULLOPTG **** full optimization, atoms and cell
 INFORMATION **** TOLDEG **** MODIFY CONVERGENCE CRITERIUM FOR RMS GRADIENT3.000000E-04
 INFORMATION **** TOLDEX ****  CONVERGENCE CRITERIUM FOR RMS DISPLACEMENT MODIFIED2.500000E-04
 *******************************************************************************
 COMBINED CELL/ATOM OPTIMIZATION CONTROL

 MAXIMUM GRADIENT COMPONENT   0.00008 MAXIMUM DISPLACEMENT COMPONENT     0.00005
 R.M.S. OF GRADIENT COMPONENT 0.00038 R.M.S. OF DISPLACEMENT COMPONENTS  0.00025
 THRESHOLD ON ENERGY CHANGE 0.100E-06 EXTRAPOLATING POLYNOMIAL ORDER           2
 MAXIMUM ALLOWED NUMBER OF STEPS  100 SORTING OF ENERGY POINTS:               NO
 ANALYTICAL  GRADIENT                 HESSIAN UPDATING                      BFGS
 STEP SIZE NUMERICAL GRADIENT 0.00100
 INITIAL HESSIAN MATRIX: SCHLEGEL MODEL 2
 *******************************************************************************


 GCALCO - MAX INDICES DIRECT LATTICE VECTOR  17  17  10
 NO.OF VECTORS CREATED 6999 STARS  503 RMAX   289.69643 BOHR

 GEOMETRY FOR WAVE FUNCTION - DIMENSIONALITY OF THE SYSTEM    3
 (NON PERIODIC DIRECTION: LATTICE PARAMETER FORMALLY SET TO 500)
 *******************************************************************************
 LATTICE PARAMETERS (ANGSTROMS AND DEGREES) - BOHR = 0.5291772083 ANGSTROM
 PRIMITIVE CELL - CENTRING CODE 1/0 VOLUME=  2155.663733 - DENSITY 2.328 g/cm^3
         A              B              C           ALPHA      BETA       GAMMA 
    10.84000000    10.84000000    18.34520000    90.000000  90.000000  90.000000
 *******************************************************************************
 ATOMS IN THE ASYMMETRIC UNIT  132 - ATOMS IN THE UNIT CELL:  132
     ATOM              X/A                 Y/B                 Z/C    
 *******************************************************************************
   1 T   8 O     1.494360000000E-01  1.350400000000E-02 -2.790400000000E-01
   2 T   8 O     3.568710000000E-01  1.608830000000E-01 -4.115410000000E-01
   3 T   8 O    -5.866400000000E-02  4.818760000000E-01 -1.723960000000E-01
   4 T   8 O     2.317600000000E-01  3.389270000000E-01 -4.755320000000E-01
   5 T   8 O     1.059260000000E-01  1.044190000000E-01 -4.258530000000E-01
   6 T   8 O     4.752410000000E-01 -5.011100000000E-02 -3.787800000000E-01
   7 T   8 O    -7.863200000000E-02 -6.820000000000E-04 -2.440550000000E-01
   8 T   8 O     1.798360000000E-01  3.216720000000E-01 -3.425350000000E-01
   9 T   8 O     2.094130000000E-01  4.382940000000E-01 -1.148870000000E-01
  10 T   8 O     3.220120000000E-01 -6.409600000000E-02 -4.969940000000E-01
  11 T   8 O     4.195580000000E-01  3.849060000000E-01 -3.616090000000E-01
  12 T   8 O     3.201140000000E-01  2.539550000000E-01 -2.016920000000E-01
  13 T   8 O     2.031230000000E-01 -4.977050000000E-01 -2.496670000000E-01
  14 T   8 O     3.527920000000E-01 -2.893550000000E-01  4.866300000000E-01
  15 T   8 O    -1.314450000000E-01 -9.615200000000E-02 -3.372900000000E-02
  16 T   8 O     1.272940000000E-01 -1.781130000000E-01  4.639090000000E-01
  17 T   8 O     1.299300000000E-01 -4.249380000000E-01 -4.719840000000E-01
  18 T   8 O     4.883420000000E-01 -4.136350000000E-01 -4.176590000000E-01
  19 T   8 O     9.523100000000E-02 -3.352340000000E-01 -1.395910000000E-01
  20 T   8 O     1.858450000000E-01 -1.780770000000E-01 -3.975440000000E-01
  21 T   8 O     3.217180000000E-01 -1.298300000000E-01 -5.567500000000E-02
  22 T   8 O     3.814270000000E-01  4.878850000000E-01  4.731410000000E-01
  23 T   8 O    -3.923090000000E-01 -1.401730000000E-01 -2.604690000000E-01
  24 T   8 O     3.247440000000E-01 -2.489750000000E-01 -1.783370000000E-01
  25 T   8 O    -2.768360000000E-01  8.956900000000E-02 -2.778160000000E-01
  26 T   8 O    -1.368500000000E-01  2.261740000000E-01 -4.124880000000E-01
  27 T   8 O     4.290080000000E-01  4.603850000000E-01 -1.869440000000E-01
  28 T   8 O    -3.141090000000E-01  3.343120000000E-01  4.868010000000E-01
  29 T   8 O    -3.908790000000E-01  1.136800000000E-01 -4.383520000000E-01
  30 T   8 O    -3.593100000000E-02 -6.899500000000E-02 -3.795600000000E-01
  31 T   8 O    -4.578470000000E-01  1.851910000000E-01 -1.722230000000E-01
  32 T   8 O    -3.397790000000E-01  3.736820000000E-01 -3.848640000000E-01
  33 T   8 O    -2.763790000000E-01  4.369580000000E-01 -9.799800000000E-02
  34 T   8 O    -8.930500000000E-02  8.979100000000E-02  4.796640000000E-01
  35 T   8 O    -1.888000000000E-02  3.580680000000E-01 -2.694060000000E-01
  36 T   8 O    -2.621320000000E-01  3.139760000000E-01 -2.342200000000E-01
  37 T   8 O    -3.737870000000E-01 -4.107320000000E-01 -3.197570000000E-01
  38 T   8 O    -9.940300000000E-02 -2.997530000000E-01 -4.294840000000E-01
  39 T   8 O     3.807740000000E-01  1.004600000000E-02 -1.725000000000E-01
  40 T   8 O    -2.476640000000E-01 -9.739400000000E-02 -4.363710000000E-01
  41 T   8 O    -3.686600000000E-01 -4.224130000000E-01  4.559970000000E-01
  42 T   8 O     2.852700000000E-02 -4.765770000000E-01 -3.650880000000E-01
  43 T   8 O    -4.000150000000E-01 -3.474060000000E-01 -1.890720000000E-01
  44 T   8 O    -2.054040000000E-01 -2.148470000000E-01 -3.040130000000E-01
  45 T   8 O    -3.583680000000E-01  4.686500000000E-02 -3.787500000000E-02
  46 T   8 O    -1.386840000000E-01  4.653330000000E-01 -4.542270000000E-01
  47 T   8 O     1.415070000000E-01 -2.264590000000E-01 -2.680500000000E-01
  48 T   8 O    -2.702150000000E-01 -4.117700000000E-02 -1.562370000000E-01
  49 T   8 O     3.050800000000E-02 -4.898340000000E-01 -2.832900000000E-02
  50 T   8 O    -6.809700000000E-02  2.235190000000E-01 -1.585360000000E-01
  51 T   8 O     7.224400000000E-02  8.127500000000E-02 -3.426300000000E-02
  52 T   8 O    -1.168260000000E-01 -3.610070000000E-01 -6.589200000000E-02
  53 T   8 O    -4.941710000000E-01 -4.177290000000E-01 -5.944900000000E-02
  54 T   8 O     3.789630000000E-01  2.004940000000E-01 -6.165400000000E-02
  55 T   8 O    -4.715110000000E-01  1.867970000000E-01 -3.114920000000E-01
  56 T   8 O    -4.627920000000E-01 -1.437550000000E-01 -1.029540000000E-01
  57 T  14 SI    1.303420000000E-01  1.378080000000E-01  5.201000000000E-02
  58 T  14 SI    3.100200000000E-01  2.597460000000E-01  7.133000000000E-03
  59 T  14 SI    2.028290000000E-01  4.240690000000E-01  1.061320000000E-01
  60 T  14 SI    4.350940000000E-01  1.946850000000E-01  1.073150000000E-01
  61 T  14 SI    6.448700000000E-02  3.142370000000E-01  1.865320000000E-01
  62 T  14 SI    3.191120000000E-01  5.796000000000E-02  1.810820000000E-01
  63 T  14 SI    1.896000000000E-01  1.782550000000E-01  2.544060000000E-01
  64 T  14 SI    4.370490000000E-01  4.383370000000E-01  2.540940000000E-01
  65 T  14 SI    8.822400000000E-02 -4.198630000000E-01  4.567200000000E-02
  66 T  14 SI    2.826090000000E-01 -1.932690000000E-01  2.515300000000E-02
  67 T  14 SI    1.925210000000E-01 -5.945000000000E-02  1.075560000000E-01
  68 T  14 SI    4.324260000000E-01 -2.973490000000E-01  9.702000000000E-02
  69 T  14 SI    6.034400000000E-02 -1.823550000000E-01  1.810660000000E-01
  70 T  14 SI    3.185110000000E-01 -4.364860000000E-01  1.774010000000E-01
  71 T  14 SI    1.875060000000E-01 -3.139960000000E-01  2.492580000000E-01
  72 T  14 SI    4.393340000000E-01 -5.854500000000E-02  2.549560000000E-01
  73 T  14 SI   -4.223050000000E-01  5.558700000000E-02  4.635300000000E-02
  74 T  14 SI   -1.937620000000E-01  3.221440000000E-01  2.926900000000E-02
  75 T  14 SI   -3.218580000000E-01  4.274450000000E-01  1.065530000000E-01
  76 T  14 SI   -6.744000000000E-02  1.996440000000E-01  1.102410000000E-01
  77 T  14 SI   -4.361800000000E-01  3.095130000000E-01  1.854430000000E-01
  78 T  14 SI   -1.892080000000E-01  6.563800000000E-02  1.852620000000E-01
  79 T  14 SI   -3.124850000000E-01  1.889000000000E-01  2.611220000000E-01
  80 T  14 SI   -6.653600000000E-02  4.371300000000E-01  2.573100000000E-01
  81 T  14 SI   -4.363140000000E-01 -4.449820000000E-01  2.344800000000E-02
  82 T  14 SI   -2.170670000000E-01 -1.909360000000E-01  2.017400000000E-02
  83 T  14 SI   -3.089700000000E-01 -6.999100000000E-02  1.159080000000E-01
  84 T  14 SI   -7.116400000000E-02 -3.035370000000E-01  1.028400000000E-01
  85 T  14 SI   -4.364480000000E-01 -1.916180000000E-01  1.874250000000E-01
  86 T  14 SI   -1.975250000000E-01 -4.389720000000E-01  1.798030000000E-01
  87 T  14 SI   -3.104990000000E-01 -3.156540000000E-01  2.645160000000E-01
  88 T  14 SI   -6.999600000000E-02 -6.586700000000E-02  2.562140000000E-01
  89 T  14 SI    3.963600000000E-02  7.145500000000E-02  3.233000000000E-01
  90 T  14 SI    3.237050000000E-01  2.975310000000E-01  3.228100000000E-01
  91 T  14 SI    1.340490000000E-01  4.003380000000E-01  3.586790000000E-01
  92 T  14 SI    4.601460000000E-01  2.079680000000E-01  4.125280000000E-01
  93 T  14 SI    3.909700000000E-02 -4.124290000000E-01  3.209030000000E-01
  94 T  14 SI    2.951350000000E-01 -1.701120000000E-01  3.206790000000E-01
  95 T  14 SI    1.530710000000E-01 -6.712200000000E-02  3.941890000000E-01
  96 T  14 SI    4.627920000000E-01 -2.450330000000E-01  3.928020000000E-01
  97 T  14 SI   -4.477160000000E-01  7.044400000000E-02  3.278750000000E-01
  98 T  14 SI   -1.848040000000E-01  3.090790000000E-01  3.410070000000E-01
  99 T  14 SI   -3.114870000000E-01  4.485790000000E-01  4.211890000000E-01
 100 T  14 SI   -4.492400000000E-02  1.943440000000E-01  4.089100000000E-01
 101 T  14 SI   -4.426710000000E-01 -4.459010000000E-01  3.344850000000E-01
 102 T  14 SI   -1.803410000000E-01 -1.909180000000E-01  3.425640000000E-01
 103 T  14 SI   -3.535560000000E-01 -8.436600000000E-02  3.982270000000E-01
 104 T  14 SI   -6.992800000000E-02 -3.301950000000E-01  4.201040000000E-01
 105 T  14 SI    1.647200000000E-02  9.757000000000E-02 -2.201430000000E-01
 106 T  14 SI    4.961140000000E-01  9.690000000000E-02 -3.829060000000E-01
 107 T  14 SI    2.972370000000E-01  2.994000000000E-01 -3.978370000000E-01
 108 T  14 SI    2.886670000000E-01  3.987210000000E-01 -1.880570000000E-01
 109 T  14 SI   -2.315600000000E-01 -3.602000000000E-02 -2.415570000000E-01
 110 T  14 SI    2.907290000000E-01  5.895100000000E-02  4.545930000000E-01
 111 T  14 SI    1.913630000000E-01 -3.081480000000E-01 -2.014890000000E-01
 112 T  14 SI    4.751280000000E-01 -3.966340000000E-01  4.941620000000E-01
 113 T  14 SI    2.463530000000E-01 -1.892330000000E-01 -4.785060000000E-01
 114 T  14 SI    3.993420000000E-01 -1.300280000000E-01 -1.336980000000E-01
 115 T  14 SI   -4.499700000000E-01  4.731780000000E-01 -3.703250000000E-01
 116 T  14 SI    2.252240000000E-01  4.724930000000E-01  4.816330000000E-01
 117 T  14 SI   -3.689930000000E-01  2.001880000000E-01 -2.466810000000E-01
 118 T  14 SI   -3.414900000000E-02  1.212880000000E-01 -4.333020000000E-01
 119 T  14 SI   -2.257260000000E-01  3.483590000000E-01 -4.407720000000E-01
 120 T  14 SI   -1.226630000000E-01  3.442250000000E-01 -1.994160000000E-01
 121 T  14 SI    1.211820000000E-01 -1.060940000000E-01 -3.273490000000E-01
 122 T  14 SI   -3.322230000000E-01 -2.325000000000E-03 -4.829250000000E-01
 123 T  14 SI   -3.566840000000E-01 -2.837580000000E-01 -2.722240000000E-01
 124 T  14 SI   -2.151000000000E-02 -4.307910000000E-01 -4.450620000000E-01
 125 T  14 SI   -1.448900000000E-01 -1.743670000000E-01 -3.862780000000E-01
 126 T  14 SI   -3.215820000000E-01 -8.924800000000E-02 -7.694100000000E-02
 127 T  14 SI    9.403600000000E-02  4.320390000000E-01 -3.091130000000E-01
 128 T  14 SI   -2.189150000000E-01 -4.625320000000E-01 -3.923100000000E-02
 129 T  14 SI    2.288800000000E-02 -6.534000000000E-02 -2.873200000000E-02
 130 T  14 SI    2.302000000000E-03 -4.413900000000E-01 -1.089230000000E-01
 131 T  14 SI    3.985360000000E-01  1.573480000000E-01 -1.473720000000E-01
 132 T  14 SI   -4.754980000000E-01 -4.514700000000E-01 -1.439770000000E-01

 T = ATOM BELONGING TO THE ASYMMETRIC UNIT

 ****   1 SYMMOPS - TRANSLATORS IN FRACTIONARY UNITS
  V INV                   ROTATION MATRICES                       TRANSLATOR
  1  1  1.00  0.00  0.00  0.00  1.00  0.00  0.00  0.00  1.00    0.00  0.00  0.00

 DIRECT LATTICE VECTORS CARTESIAN COMPONENTS (ANGSTROM)
          X                    Y                    Z
   0.108400000000E+02   0.663758565138E-15   0.000000000000E+00
   0.000000000000E+00   0.108400000000E+02   0.000000000000E+00
   0.112331952299E-14   0.112331952299E-14   0.183452000000E+02


 CARTESIAN COORDINATES - PRIMITIVE CELL
 *******************************************************************************
 *      ATOM          X(ANGSTROM)         Y(ANGSTROM)         Z(ANGSTROM)
 *******************************************************************************
   1     8 O     1.619886240000E+00  1.463833600000E-01 -5.119044608000E+00
   2     8 O     3.868481640000E+00  1.743971720000E+00 -7.549801953200E+00
   3     8 O    -6.359177600000E-01  5.223535840000E+00 -3.162639099200E+00
   4     8 O     2.512278400000E+00  3.673968680000E+00 -8.723729646400E+00
   5     8 O     1.148237840000E+00  1.131901960000E+00 -7.812358455600E+00
   6     8 O     5.151612440000E+00 -5.432032400000E-01 -6.948794856000E+00
   7     8 O    -8.523708800000E-01 -7.392880000000E-03 -4.477237786000E+00
   8     8 O     1.949422240000E+00  3.486924480000E+00 -6.283873082000E+00
   9     8 O     2.270036920000E+00  4.751106960000E+00 -2.107624992400E+00
  10     8 O     3.490610080000E+00 -6.948006400000E-01 -9.117454328800E+00
  11     8 O     4.548008720000E+00  4.172381040000E+00 -6.633789426800E+00
  12     8 O     3.470035760000E+00  2.752872200000E+00 -3.700080078400E+00
  13     8 O     2.201853320000E+00 -5.395122200000E+00 -4.580191048400E+00
  14     8 O     3.824265280000E+00 -3.136608200000E+00  8.927324676000E+00
  15     8 O    -1.424863800000E+00 -1.042287680000E+00 -6.187652508000E-01
  16     8 O     1.379866960000E+00 -1.930744920000E+00  8.510503386800E+00
  17     8 O     1.408441200000E+00 -4.606327920000E+00 -8.658640876800E+00
  18     8 O     5.293627280000E+00 -4.483803400000E+00 -7.662037886800E+00
  19     8 O     1.032304040000E+00 -3.633936560000E+00 -2.560824813200E+00
  20     8 O     2.014559800000E+00 -1.930354680000E+00 -7.293024188800E+00
  21     8 O     3.487423120000E+00 -1.407357200000E+00 -1.021369010000E+00
  22     8 O     4.134668680000E+00  5.288673400000E+00  8.679866273200E+00
  23     8 O    -4.252629560000E+00 -1.519475320000E+00 -4.778355898800E+00
  24     8 O     3.520224960000E+00 -2.698889000000E+00 -3.271627932400E+00
  25     8 O    -3.000902240000E+00  9.709279600000E-01 -5.096590083200E+00
  26     8 O    -1.483454000000E+00  2.451726160000E+00 -7.567174857600E+00
  27     8 O     4.650446720000E+00  4.990573400000E+00 -3.429525068800E+00
  28     8 O    -3.404941560000E+00  3.623942080000E+00  8.930461705200E+00
  29     8 O    -4.237128360000E+00  1.232291200000E+00 -8.041655110400E+00
  30     8 O    -3.894920400000E-01 -7.479058000000E-01 -6.963104112000E+00
  31     8 O    -4.963061480000E+00  2.007470440000E+00 -3.159465379600E+00
  32     8 O    -3.683204360000E+00  4.050712880000E+00 -7.060407052800E+00
  33     8 O    -2.995948360000E+00  4.736624720000E+00 -1.797792909600E+00
  34     8 O    -9.680662000000E-01  9.733344400000E-01  8.799532012800E+00
  35     8 O    -2.046592000000E-01  3.881457120000E+00 -4.942306951200E+00
  36     8 O    -2.841510880000E+00  3.403499840000E+00 -4.296812744000E+00
  37     8 O    -4.051851080000E+00 -4.452334880000E+00 -5.866006116400E+00
  38     8 O    -1.077528520000E+00 -3.249322520000E+00 -7.878969876800E+00
  39     8 O     4.127590160000E+00  1.088986400000E-01 -3.164547000000E+00
  40     8 O    -2.684677760000E+00 -1.055750960000E+00 -8.005313269200E+00
  41     8 O    -3.996274400000E+00 -4.578956920000E+00  8.365356164400E+00
  42     8 O     3.092326800000E-01 -5.166094680000E+00 -6.697612377600E+00
  43     8 O    -4.336162600000E+00 -3.765881040000E+00 -3.468563654400E+00
  44     8 O    -2.226579360000E+00 -2.328941480000E+00 -5.577179287600E+00
  45     8 O    -3.884709120000E+00  5.080166000000E-01 -6.948244500000E-01
  46     8 O    -1.503334560000E+00  5.044209720000E+00 -8.332885160400E+00
  47     8 O     1.533935880000E+00 -2.454815560000E+00 -4.917430860000E+00
  48     8 O    -2.929130600000E+00 -4.463586800000E-01 -2.866199012400E+00
  49     8 O     3.307067200000E-01 -5.309800560000E+00 -5.197011708000E-01
  50     8 O    -7.381714800000E-01  2.422945960000E+00 -2.908374627200E+00
  51     8 O     7.831249600000E-01  8.810210000000E-01 -6.285615876000E-01
  52     8 O    -1.266393840000E+00 -3.913315880000E+00 -1.208801918400E+00
  53     8 O    -5.356813640000E+00 -4.528182360000E+00 -1.090603794800E+00
  54     8 O     4.107958920000E+00  2.173354960000E+00 -1.131054960800E+00
  55     8 O    -5.111179240000E+00  2.024879480000E+00 -5.714383038400E+00
  56     8 O    -5.016665280000E+00 -1.558304200000E+00 -1.888711720800E+00
  57    14 SI    1.412907280000E+00  1.493838720000E+00  9.541338520000E-01
  58    14 SI    3.360616800000E+00  2.815646640000E+00  1.308563116000E-01
  59    14 SI    2.198666360000E+00  4.596907960000E+00  1.947012766400E+00
  60    14 SI    4.716418960000E+00  2.110385400000E+00  1.968715138000E+00
  61    14 SI    6.990390800000E-01  3.406329080000E+00  3.421966846400E+00
  62    14 SI    3.459174080000E+00  6.282864000000E-01  3.321985506400E+00
  63    14 SI    2.055264000000E+00  1.932284200000E+00  4.667128951200E+00
  64    14 SI    4.737611160000E+00  4.751573080000E+00  4.661405248800E+00
  65    14 SI    9.563481600000E-01 -4.551314920000E+00  8.378619744000E-01
  66    14 SI    3.063481560000E+00 -2.095035960000E+00  4.614368156000E-01
  67    14 SI    2.086927640000E+00 -6.444380000000E-01  1.973136331200E+00
  68    14 SI    4.687497840000E+00 -3.223263160000E+00  1.779851304000E+00
  69    14 SI    6.541289600000E-01 -1.976728200000E+00  3.321691983200E+00
  70    14 SI    3.452659240000E+00 -4.731508240000E+00  3.254456825200E+00
  71    14 SI    2.032565040000E+00 -3.403716640000E+00  4.572687861600E+00
  72    14 SI    4.762380560000E+00 -6.346278000000E-01  4.677218811200E+00
  73    14 SI   -4.577786200000E+00  6.025630800000E-01  8.503550556000E-01
  74    14 SI   -2.100380080000E+00  3.492040960000E+00  5.369456588000E-01
  75    14 SI   -3.488940720000E+00  4.633503800000E+00  1.954736095600E+00
  76    14 SI   -7.310496000000E-01  2.164140960000E+00  2.022393193200E+00
  77    14 SI   -4.728191200000E+00  3.355120920000E+00  3.401988923600E+00
  78    14 SI   -2.051014720000E+00  7.115159200000E-01  3.398668442400E+00
  79    14 SI   -3.387337400000E+00  2.047676000000E+00  4.790335314400E+00
  80    14 SI   -7.212502400000E-01  4.738489200000E+00  4.720403412000E+00
  81    14 SI   -4.729643760000E+00 -4.823604880000E+00  4.301582496000E-01
  82    14 SI   -2.353006280000E+00 -2.069746240000E+00  3.700960648000E-01
  83    14 SI   -3.349234800000E+00 -7.587024400000E-01  2.126355441600E+00
  84    14 SI   -7.714177600000E-01 -3.290341080000E+00  1.886620368000E+00
  85    14 SI   -4.731096320000E+00 -2.077139120000E+00  3.438349110000E+00
  86    14 SI   -2.141171000000E+00 -4.758456480000E+00  3.298521995600E+00
  87    14 SI   -3.365809160000E+00 -3.421689360000E+00  4.852598923200E+00
  88    14 SI   -7.587566400000E-01 -7.139982800000E-01  4.700297072800E+00
  89    14 SI    4.296542400000E-01  7.745722000000E-01  5.931003160000E+00
  90    14 SI    3.508962200000E+00  3.225236040000E+00  5.922014012000E+00
  91    14 SI    1.453091160000E+00  4.339663920000E+00  6.580037990800E+00
  92    14 SI    4.987982640000E+00  2.254373120000E+00  7.567908665600E+00
  93    14 SI    4.238114800000E-01 -4.470730360000E+00  5.887029715600E+00
  94    14 SI    3.199263400000E+00 -1.844014080000E+00  5.882920390800E+00
  95    14 SI    1.659289640000E+00 -7.276024800000E-01  7.231476042800E+00
  96    14 SI    5.016665280000E+00 -2.656157720000E+00  7.206031250400E+00
  97    14 SI   -4.853241440000E+00  7.636129600000E-01  6.014932450000E+00
  98    14 SI   -2.003275360000E+00  3.350416360000E+00  6.255841616400E+00
  99    14 SI   -3.376519080000E+00  4.862596360000E+00  7.726796442800E+00
 100    14 SI   -4.869761600000E-01  2.106688960000E+00  7.501535732000E+00
 101    14 SI   -4.798553640000E+00 -4.833566840000E+00  6.136194222000E+00
 102    14 SI   -1.954896440000E+00 -2.069551120000E+00  6.284405092800E+00
 103    14 SI   -3.832547040000E+00 -9.145274400000E-01  7.305553960400E+00
 104    14 SI   -7.580195200000E-01 -3.579313800000E+00  7.706891900800E+00
 105    14 SI    1.785564800000E-01  1.057658800000E+00 -4.038567363600E+00
 106    14 SI    5.377875760000E+00  1.050396000000E+00 -7.024487151200E+00
 107    14 SI    3.222049080000E+00  3.245496000000E+00 -7.298399332400E+00
 108    14 SI    3.129150280000E+00  4.322135640000E+00 -3.449943276400E+00
 109    14 SI   -2.510110400000E+00 -3.904568000000E-01 -4.431411476400E+00
 110    14 SI    3.151502360000E+00  6.390288400000E-01  8.339599503600E+00
 111    14 SI    2.074374920000E+00 -3.340324320000E+00 -3.696356002800E+00
 112    14 SI    5.150387520000E+00 -4.299512560000E+00  9.065500722400E+00
 113    14 SI    2.670466520000E+00 -2.051285720000E+00 -8.778288271200E+00
 114    14 SI    4.328867280000E+00 -1.409503520000E+00 -2.452716549600E+00
 115    14 SI   -4.877674800000E+00  5.129249520000E+00 -6.793686190000E+00
 116    14 SI    2.441428160000E+00  5.121824120000E+00  8.835653711600E+00
 117    14 SI   -3.999884120000E+00  2.170037920000E+00 -4.525412281200E+00
 118    14 SI   -3.701751600000E-01  1.314761920000E+00 -7.949011850400E+00
 119    14 SI   -2.446869840000E+00  3.776211560000E+00 -8.086050494400E+00
 120    14 SI   -1.329666920000E+00  3.731399000000E+00 -3.658326403200E+00
 121    14 SI    1.313612880000E+00 -1.150058960000E+00 -6.005282874800E+00
 122    14 SI   -3.601297320000E+00 -2.520300000000E-02 -8.859355710000E+00
 123    14 SI   -3.866454560000E+00 -3.075936720000E+00 -4.994003724800E+00
 124    14 SI   -2.331684000000E-01 -4.669774440000E+00 -8.164751402400E+00
 125    14 SI   -1.570607600000E+00 -1.890138280000E+00 -7.086347165600E+00
 126    14 SI   -3.485948880000E+00 -9.674483200000E-01 -1.411498033200E+00
 127    14 SI    1.019350240000E+00  4.683302760000E+00 -5.670739807600E+00
 128    14 SI   -2.373038600000E+00 -5.013846880000E+00 -7.197005412000E-01
 129    14 SI    2.481059200000E-01 -7.082856000000E-01 -5.270942864000E-01
 130    14 SI    2.495368000000E-02 -4.784667600000E+00 -1.998214219600E+00
 131    14 SI    4.320130240000E+00  1.705652320000E+00 -2.703568814400E+00
 132    14 SI   -5.154398320000E+00 -4.893934800000E+00 -2.641286860400E+00

 *******************************************************************************
 LOCAL ATOMIC FUNCTIONS BASIS SET
 *******************************************************************************
   ATOM  X(AU)  Y(AU)  Z(AU)    NO. TYPE  EXPONENT  S COEF   P COEF   D/F/G COEF
 *******************************************************************************
   1 O   3.061  0.277 -9.674
                                  1 S  
                                         8.020E+03 1.080E-03 0.000E+00 0.000E+00
                                         1.338E+03 8.040E-03 0.000E+00 0.000E+00
                                         2.554E+02 5.324E-02 0.000E+00 0.000E+00
                                         6.922E+01 1.681E-01 0.000E+00 0.000E+00
                                         2.390E+01 3.581E-01 0.000E+00 0.000E+00
                                         9.264E+00 3.855E-01 0.000E+00 0.000E+00
                                         3.851E+00 1.468E-01 0.000E+00 0.000E+00
                                         1.212E+00 7.280E-02 0.000E+00 0.000E+00
                             2-   5 SP 
                                         4.943E+01-8.830E-03 9.580E-03 0.000E+00
                                         1.047E+01-9.150E-02 6.960E-02 0.000E+00
                                         3.235E+00-4.020E-02 2.065E-01 0.000E+00
                                         1.217E+00 3.790E-01 3.470E-01 0.000E+00
                             6-   9 SP 
                                         4.763E-01 1.000E+00 1.000E+00 0.000E+00
                            10-  13 SP 
                                         1.900E-01 1.000E+00 1.000E+00 0.000E+00
   2 O   7.310  3.296-14.267
   3 O  -1.202  9.871 -5.977
   4 O   4.748  6.943-16.485
   5 O   2.170  2.139-14.763
   6 O   9.735 -1.027-13.131
   7 O  -1.611 -0.014 -8.461
   8 O   3.684  6.589-11.875
   9 O   4.290  8.978 -3.983
  10 O   6.596 -1.313-17.229
  11 O   8.594  7.885-12.536
  12 O   6.557  5.202 -6.992
  13 O   4.161-10.195 -8.655
  14 O   7.227 -5.927 16.870
  15 O  -2.693 -1.970 -1.169
  16 O   2.608 -3.649 16.083
  17 O   2.662 -8.705-16.362
  18 O  10.004 -8.473-14.479
  19 O   1.951 -6.867 -4.839
  20 O   3.807 -3.648-13.782
  21 O   6.590 -2.660 -1.930
  22 O   7.813  9.994 16.403
  23 O  -8.036 -2.871 -9.030
  24 O   6.652 -5.100 -6.182
  25 O  -5.671  1.835 -9.631
  26 O  -2.803  4.633-14.300
  27 O   8.788  9.431 -6.481
  28 O  -6.434  6.848 16.876
  29 O  -8.007  2.329-15.197
  30 O  -0.736 -1.413-13.158
  31 O  -9.379  3.794 -5.971
  32 O  -6.960  7.655-13.342
  33 O  -5.662  8.951 -3.397
  34 O  -1.829  1.839 16.629
  35 O  -0.387  7.335 -9.340
  36 O  -5.370  6.432 -8.120
  37 O  -7.657 -8.414-11.085
  38 O  -2.036 -6.140-14.889
  39 O   7.800  0.206 -5.980
  40 O  -5.073 -1.995-15.128
  41 O  -7.552 -8.653 15.808
  42 O   0.584 -9.763-12.657
  43 O  -8.194 -7.116 -6.555
  44 O  -4.208 -4.401-10.539
  45 O  -7.341  0.960 -1.313
  46 O  -2.841  9.532-15.747
  47 O   2.899 -4.639 -9.293
  48 O  -5.535 -0.843 -5.416
  49 O   0.625-10.034 -0.982
  50 O  -1.395  4.579 -5.496
  51 O   1.480  1.665 -1.188
  52 O  -2.393 -7.395 -2.284
  53 O -10.123 -8.557 -2.061
  54 O   7.763  4.107 -2.137
  55 O  -9.659  3.826-10.799
  56 O  -9.480 -2.945 -3.569
  57 SI  2.670  2.823  1.803
                                729 S  
                                         1.499E+05 1.215E-04 0.000E+00 0.000E+00
                                         2.208E+04 9.770E-04 0.000E+00 0.000E+00
                                         4.818E+03 5.518E-03 0.000E+00 0.000E+00
                                         1.274E+03 2.520E-02 0.000E+00 0.000E+00
                                         3.851E+02 9.266E-02 0.000E+00 0.000E+00
                                         1.284E+02 2.609E-01 0.000E+00 0.000E+00
                                         4.545E+01 4.638E-01 0.000E+00 0.000E+00
                                         1.626E+01 2.952E-01 0.000E+00 0.000E+00
                           730- 733 SP 
                                         8.811E+02-3.000E-04 6.809E-04 0.000E+00
                                         2.058E+02-5.000E-03 5.945E-03 0.000E+00
                                         6.486E+01-3.680E-02 3.120E-02 0.000E+00
                                         2.390E+01-1.079E-01 1.084E-01 0.000E+00
                                         1.000E+01 1.340E-02 2.378E-01 0.000E+00
                                         4.472E+00 3.675E-01 3.560E-01 0.000E+00
                                         2.034E+00 5.685E-01 3.410E-01 0.000E+00
                                         9.079E-01 2.065E-01 1.326E-01 0.000E+00
                           734- 737 SP 
                                         2.667E+00-4.910E-02 4.650E-02 0.000E+00
                                         1.078E+00-1.167E-01-1.005E-01 0.000E+00
                                         3.682E-01 2.300E-01-1.033E+00 0.000E+00
                           738- 741 SP 
                                         1.930E-01 1.000E+00 1.000E+00 0.000E+00
                           742- 746 D  
                                         6.100E-01 0.000E+00 0.000E+00 1.000E+00
  58 SI  6.351  5.321  0.247
  59 SI  4.155  8.687  3.679
  60 SI  8.913  3.988  3.720
  61 SI  1.321  6.437  6.467
  62 SI  6.537  1.187  6.278
  63 SI  3.884  3.651  8.820
  64 SI  8.953  8.979  8.809
  65 SI  1.807 -8.601  1.583
  66 SI  5.789 -3.959  0.872
  67 SI  3.944 -1.218  3.729
  68 SI  8.858 -6.091  3.363
  69 SI  1.236 -3.735  6.277
  70 SI  6.525 -8.941  6.150
  71 SI  3.841 -6.432  8.641
  72 SI  9.000 -1.199  8.839
  73 SI -8.651  1.139  1.607
  74 SI -3.969  6.599  1.015
  75 SI -6.593  8.756  3.694
  76 SI -1.381  4.090  3.822
  77 SI -8.935  6.340  6.429
  78 SI -3.876  1.345  6.423
  79 SI -6.401  3.870  9.052
  80 SI -1.363  8.954  8.920
  81 SI -8.938 -9.115  0.813
  82 SI -4.447 -3.911  0.699
  83 SI -6.329 -1.434  4.018
  84 SI -1.458 -6.218  3.565
  85 SI -8.940 -3.925  6.498
  86 SI -4.046 -8.992  6.233
  87 SI -6.360 -6.466  9.170
  88 SI -1.434 -1.349  8.882
  89 SI  0.812  1.464 11.208
  90 SI  6.631  6.095 11.191
  91 SI  2.746  8.201 12.434
  92 SI  9.426  4.260 14.301
  93 SI  0.801 -8.448 11.125
  94 SI  6.046 -3.485 11.117
  95 SI  3.136 -1.375 13.666
  96 SI  9.480 -5.019 13.617
  97 SI -9.171  1.443 11.367
  98 SI -3.786  6.331 11.822
  99 SI -6.381  9.189 14.602
 100 SI -0.920  3.981 14.176
 101 SI -9.068 -9.134 11.596
 102 SI -3.694 -3.911 11.876
 103 SI -7.242 -1.728 13.805
 104 SI -1.432 -6.764 14.564
 105 SI  0.337  1.999 -7.632
 106 SI 10.163  1.985-13.274
 107 SI  6.089  6.133-13.792
 108 SI  5.913  8.168 -6.519
 109 SI -4.743 -0.738 -8.374
 110 SI  5.955  1.208 15.760
 111 SI  3.920 -6.312 -6.985
 112 SI  9.733 -8.125 17.131
 113 SI  5.046 -3.876-16.589
 114 SI  8.180 -2.664 -4.635
 115 SI -9.217  9.693-12.838
 116 SI  4.614  9.679 16.697
 117 SI -7.559  4.101 -8.552
 118 SI -0.700  2.485-15.021
 119 SI -4.624  7.136-15.280
 120 SI -2.513  7.051 -6.913
 121 SI  2.482 -2.173-11.348
 122 SI -6.805 -0.048-16.742
 123 SI -7.307 -5.813 -9.437
 124 SI -0.441 -8.825-15.429
 125 SI -2.968 -3.572-13.391
 126 SI -6.587 -1.828 -2.667
 127 SI  1.926  8.850-10.716
 128 SI -4.484 -9.475 -1.360
 129 SI  0.469 -1.338 -0.996
 130 SI  0.047 -9.042 -3.776
 131 SI  8.164  3.223 -5.109
 132 SI -9.740 -9.248 -4.991
 INFORMATION **** TOLINTEG **** COULOMB AND EXCHANGE SERIES TOLERANCES MODIFIED
 INFORMATION **** READM2 **** FULL DIRECT SCF (MONO AND BIEL INT) SELECTED
 FERMI SMEARING - TEMPERATURE SMEARING OF FERMI SURFACE  0.1000E-12
 INFORMATION **** MAXCYCLE **** MAX NUMBER OF SCF CYCLES SET TO        50

 MODIFIED BROYDEN MIXING OF THE FOCK MATRIX
 WO PARAMETER(D.D. Johnson, PRB38, 12807,(1988)             1.0000E-04
 % OF FOCK/KS MATRICES MIXING WHEN BROYDEN METHOD IS ON             60
 NUMBER OF SCF ITERATIONS AFTER WHICH BROYDEN METHOD IS ACTIVE       5
 INFORMATION **** TOLDEE **** SCF TOL ON TOTAL ENERGY SET TO        10
 *******************************************************************************
 N. OF ATOMS PER CELL      132  COULOMB OVERLAP TOL         (T1) 10** -8
 NUMBER OF SHELLS          604  COULOMB PENETRATION TOL     (T2) 10** -8
 NUMBER OF AO             2096  EXCHANGE OVERLAP TOL        (T3) 10** -8
 N. OF ELECTRONS PER CELL 1512  EXCHANGE PSEUDO OVP (F(G))  (T4) 10** -8
 CORE ELECTRONS PER CELL   872  EXCHANGE PSEUDO OVP (P(G))  (T5) 10**-16
 N. OF SYMMETRY OPERATORS    1  POLE ORDER IN MONO ZONE                4
 *******************************************************************************
 TYPE OF CALCULATION :  RESTRICTED CLOSED SHELL
 KOHN-SHAM HAMILTONIAN

 (EXCHANGE)[CORRELATION] FUNCTIONAL:(BECKE)[LEE-YANG-PARR]

 NON-LOCAL WEIGHTING FACTOR (EXCHANGE) =           0.9000
 NON-LOCAL WEIGHTING FACTOR [CORRELATION] =        0.8100

 HYBRID EXCHANGE - PERCENTAGE OF FOCK EXCHANGE    20.0000

 CAPPA: IS1=  1 IS2=  1 IS3=  1K POINTS MONKHORST NET    1 SYMMOPS K SPACE  2 SYMMOPS G SPACE  1


 CAPPA1: ISJ1=  1 ISJ2=  1 ISJ3=  1K POINTS GILAT NET    1 SYMMOPS K SPACE  2 SYMMOPS G SPACE  1

 *******************************************************************************
 MAX NUMBER OF SCF CYCLES      50  CONVERGENCE ON DELTAP        10**-20
 WEIGHT OF F(I) IN F(I+1)      80% CONVERGENCE ON ENERGY        10**-10
 SHRINK. FACT.(MONKH.)    1  1  1  NUMBER OF K POINTS IN THE IBZ      1
 SHRINKING FACTOR(GILAT NET)    1  NUMBER OF K POINTS(GILAT NET)      1
 *******************************************************************************
 *** K POINTS COORDINATES (OBLIQUE COORDINATES IN UNITS OF IS =  1)
   1-R(  0  0  0)

 DIRECT LATTICE VECTORS COMPON. (A.U.)     RECIP. LATTICE VECTORS COMPON. (A.U.) 
        X            Y            Z              X            Y            Z
   20.4846313    0.0000000    0.0000000      0.3067268    0.0000000    0.0000000
    0.0000000   20.4846313    0.0000000      0.0000000    0.3067268    0.0000000
    0.0000000    0.0000000   34.6674039      0.0000000    0.0000000    0.1812419

 DISK SPACE FOR EIGENVECTORS (FTN 10)    4393216 REALS

 SYMMETRY ADAPTION OF THE BLOCH FUNCTIONS DISABLED

 DIMENSIONS  P(G)= 3421702 F(G)=  600994 P(G),F(G) (IRR) 1715035
 MAX G-VECTOR INDEX FOR 1- AND 2-ELECTRON INTEGRALS  31

 TTTTTTTTTTTTTTTTTTTTTTTTTTTTTT INPUT       TELAPSE        5.84 TCPU        5.82

 NEIGHBORS OF THE NON-EQUIVALENT ATOMS

 N = NUMBER OF NEIGHBORS AT DISTANCE R
    ATOM  N     R/ANG      R/AU   NEIGHBORS (ATOM LABELS AND CELL INDICES)
   1 O    1     1.6000     3.0236 121 SI   0 0 0
   1 O    1     2.0187     3.8149 105 SI   0 0 0
   1 O    1     2.5588     4.8355   7 O    0 0 0
   1 O    1     2.6104     4.9330  47 O    0 0 0
   1 O    1     2.8702     5.4238  30 O    0 0 0
   1 O    1     2.9065     5.4925   5 O    0 0 0
   1 O    1     3.0323     5.7302  20 O    0 0 0
   1 O    1     3.1796     6.0086  39 O    0 0 0
   1 O    1     3.4972     6.6087  12 O    0 0 0
   1 O    1     3.5531     6.7144   8 O    0 0 0

   2 O    1     1.6540     3.1256 107 SI   0 0 0
   2 O    1     1.7422     3.2923 106 SI   0 0 0
   2 O    1     2.6284     4.9670  55 O    1 0 0
   2 O    1     2.6348     4.9791   4 O    0 0 0
   2 O    1     2.6829     5.0700  11 O    0 0 0
   2 O    1     2.6905     5.0843   6 O    0 0 0
   2 O    1     2.7867     5.2662 110 SI   0 0-1
   2 O    1     2.8006     5.2923   5 O    0 0 0
   2 O    1     2.8250     5.3385  29 O    1 0 0
   2 O    1     2.8850     5.4519   8 O    0 0 0

   3 O    1     1.5762     2.9787 130 SI   0 1 0
   3 O    1     1.7186     3.2476 120 SI   0 0 0
   3 O    1     2.2703     4.2903  35 O    0 0 0
   3 O    1     2.6600     5.0267  19 O    0 1 0
   3 O    1     2.6675     5.0409  52 O    0 1 0
   3 O    1     2.7694     5.2334  33 O    0 0 0
   3 O    1     2.8140     5.3176  50 O    0 0 0
   3 O    1     2.8308     5.3495  49 O    0 1 0
   3 O    1     3.0532     5.7698 127 SI   0 0 0
   3 O    1     3.0576     5.7780 128 SI   0 1 0

   4 O    1     1.6489     3.1159 116 SI   0 0-1
   4 O    1     1.6489     3.1160 107 SI   0 0 0
   4 O    1     2.4751     4.6772  22 O    0 0-1
   4 O    1     2.5109     4.7449   8 O    0 0 0
   4 O    1     2.6348     4.9791   2 O    0 0 0
   4 O    1     2.7883     5.2692  17 O    0 1 0
   4 O    1     2.9598     5.5932  11 O    0 0 0
   4 O    1     3.0254     5.7173   5 O    0 0 0
   4 O    1     3.2887     6.2147  91 SI   0 0-1
   4 O    1     3.3560     6.3419 110 SI   0 0-1

   5 O    1     1.5355     2.9016 118 SI   0 0 0
   5 O    1     2.5728     4.8620  30 O    0 0 0
   5 O    1     2.7401     5.1781  34 O    0 0-1
   5 O    1     2.8006     5.2923   2 O    0 0 0
   5 O    1     2.9065     5.4925   1 O    0 0 0
   5 O    1     2.9155     5.5095 121 SI   0 0 0
   5 O    1     2.9196     5.5173   8 O    0 0 0
   5 O    1     2.9543     5.5828  26 O    0 0 0
   5 O    1     3.0053     5.6793 107 SI   0 0 0
   5 O    1     3.0110     5.6900 110 SI   0 0-1

   6 O    1     1.6114     3.0450 106 SI   0 0 0
   6 O    1     2.5403     4.8004  29 O    1 0 0
   6 O    1     2.6905     5.0843   2 O    0 0 0
   6 O    1     2.7359     5.1700  10 O    0 0 0
   6 O    1     2.7794     5.2524  23 O    1 0 0
   6 O    1     2.8765     5.4359 122 SI   1 0 0
   6 O    1     2.9072     5.4939  55 O    1 0 0
   6 O    1     3.2251     6.0945  40 O    1 0 0
   6 O    1     3.4318     6.4852 113 SI   0 0 0
   6 O    1     3.4473     6.5144  20 O    0 0 0

   7 O    1     1.5458     2.9212 105 SI   0 0 0
   7 O    1     1.7020     3.2164 109 SI   0 0 0
   7 O    1     2.4407     4.6122  25 O    0 0 0
   7 O    1     2.5588     4.8355   1 O    0 0 0
   7 O    1     2.6348     4.9790  30 O    0 0 0
   7 O    1     2.6648     5.0357  48 O    0 0 0
   7 O    1     2.8865     5.4548 121 SI   0 0 0
   7 O    1     2.8950     5.4707  50 O    0 0 0
   7 O    1     2.9134     5.5055  44 O    0 0 0
   7 O    1     3.2967     6.2298 125 SI   0 0 0

   8 O    1     1.6347     3.0892 127 SI   0 0 0
   8 O    1     1.6453     3.1092 107 SI   0 0 0
   8 O    1     2.5109     4.7449   4 O    0 0 0
   8 O    1     2.5682     4.8531  35 O    0 0 0
   8 O    1     2.6076     4.9277  13 O    0 1 0
   8 O    1     2.7102     5.1215  11 O    0 0 0
   8 O    1     2.7648     5.2248  42 O    0 1 0
   8 O    1     2.8850     5.4519   2 O    0 0 0
   8 O    1     2.9196     5.5173   5 O    0 0 0
   8 O    1     3.0866     5.8328  12 O    0 0 0

   9 O    1     1.6504     3.1189 108 SI   0 0 0
   9 O    1     2.5690     4.8546  13 O    0 1 0
   9 O    1     2.5987     4.9109 130 SI   0 1 0
   9 O    1     2.6248     4.9601  49 O    0 1 0
   9 O    1     2.7333     5.1653  27 O    0 0 0
   9 O    1     2.7864     5.2656  19 O    0 1 0
   9 O    1     2.8229     5.3345  12 O    0 0 0
   9 O    1     3.1274     5.9100   3 O    0 0 0
   9 O    1     3.1538     5.9597  58 SI   0 0 0
   9 O    1     3.1807     6.0107 111 SI   0 1 0

  10 O    1     1.6210     3.0633 113 SI   0 0 0
  10 O    1     1.6380     3.0953 110 SI   0 0-1
  10 O    1     2.4827     4.6917  14 O    0 0-1
  10 O    1     2.5490     4.8168  16 O    0 0-1
  10 O    1     2.6521     5.0118  20 O    0 0 0
  10 O    1     2.7092     5.1197  95 SI   0 0-1
  10 O    1     2.7359     5.1700   6 O    0 0 0
  10 O    1     2.9237     5.5250   2 O    0 0 0
  10 O    1     3.2036     6.0539  96 SI   0 0-1
  10 O    1     3.2445     6.1312   5 O    0 0 0

  11 O    1     1.7151     3.2410 115 SI   1 0 0
  11 O    1     1.7490     3.3051 107 SI   0 0 0
  11 O    1     2.5263     4.7741  18 O    0 1 0
  11 O    1     2.6175     4.9464  55 O    1 0 0
  11 O    1     2.6462     5.0007  32 O    1 0 0
  11 O    1     2.6829     5.0700   2 O    0 0 0
  11 O    1     2.7102     5.1215   8 O    0 0 0
  11 O    1     2.9598     5.5932   4 O    0 0 0
  11 O    1     3.2427     6.1278  37 O    1 1 0
  11 O    1     3.2539     6.1491 106 SI   0 0 0

  12 O    1     1.6252     3.0712 108 SI   0 0 0
  12 O    1     1.6770     3.1691 131 SI   0 0 0
  12 O    1     2.5444     4.8082  27 O    0 0 0
  12 O    1     2.5770     4.8699  31 O    1 0 0
  12 O    1     2.7097     5.1207  54 O    0 0 0
  12 O    1     2.7766     5.2471  39 O    0 0 0
  12 O    1     2.8229     5.3345   9 O    0 0 0
  12 O    1     3.0866     5.8328   8 O    0 0 0
  12 O    1     3.1032     5.8642  13 O    0 1 0
  12 O    1     3.1128     5.8823  55 O    1 0 0

  13 O    1     1.7798     3.3633 127 SI   0-1 0
  13 O    1     1.8433     3.4834 108 SI   0-1 0
  13 O    1     2.2404     4.2338 111 SI   0 0 0
  13 O    1     2.5690     4.8546   9 O    0-1 0
  13 O    1     2.6076     4.9277   8 O    0-1 0
  13 O    1     2.7434     5.1842  27 O    0-1 0
  13 O    1     2.8492     5.3842  42 O    0 0 0
  13 O    1     2.8925     5.4661  35 O    0-1 0
  13 O    1     2.9236     5.5248  19 O    0 0 0
  13 O    1     3.0340     5.7335  47 O    0 0 0

  14 O    1     1.7083     3.2282 113 SI   0 0 1
  14 O    1     1.7692     3.3433 112 SI   0 0 0
  14 O    1     2.1484     4.0598  96 SI   0 0 0
  14 O    1     2.4471     4.6244  22 O    0-1 0
  14 O    1     2.4827     4.6917  10 O    0 0 1
  14 O    1     2.6565     5.0200  18 O    0 0 1
  14 O    1     2.7573     5.2106  16 O    0 0 0
  14 O    1     2.9279     5.5330  17 O    0 0 1
  14 O    1     2.9300     5.5370 116 SI   0-1 0
  14 O    1     3.0406     5.7458  20 O    0 0 1

  15 O    1     1.7015     3.2153  82 SI   0 0 0
  15 O    1     1.7084     3.2285 129 SI   0 0 0
  15 O    1     2.2095     4.1754 126 SI   0 0 0
  15 O    1     2.7693     5.2332  48 O    0 0 0
  15 O    1     2.9086     5.4965  45 O    0 0 0
  15 O    1     2.9282     5.5335  51 O    0 0 0
  15 O    1     2.9353     5.5469  52 O    0 0 0
  15 O    1     3.3644     6.3578  83 SI   0 0 0
  15 O    1     3.4289     6.4798  84 SI   0 0 0
  15 O    1     3.8445     7.2650  56 O    0 0 0

  16 O    1     1.6722     3.1600 113 SI   0 0 1
  16 O    1     1.7781     3.3601  95 SI   0 0 0
  16 O    1     2.5490     4.8168  10 O    0 0 1
  16 O    1     2.6197     4.9506  20 O    0 0 1
  16 O    1     2.7573     5.2106  14 O    0 0 0
  16 O    1     2.8168     5.3229 104 SI   0 0 0
  16 O    1     2.9228     5.5233  17 O    0 0 1
  16 O    1     3.1260     5.9072 110 SI   0 0 0
  16 O    1     3.1972     6.0418  94 SI   0 0 0
  16 O    1     3.4062     6.4368  38 O    0 0 1

  17 O    1     1.7155     3.2418 124 SI   0 0 0
  17 O    1     1.7399     3.2880 116 SI   0-1-1
  17 O    1     2.3167     4.3780  42 O    0 0 0
  17 O    1     2.7883     5.2692   4 O    0-1 0
  17 O    1     2.8522     5.3899 113 SI   0 0 0
  17 O    1     2.9228     5.5233  16 O    0 0-1
  17 O    1     2.9279     5.5330  14 O    0 0-1
  17 O    1     2.9376     5.5512  38 O    0 0 0
  17 O    1     3.0559     5.7749  22 O    0-1-1
  17 O    1     3.0648     5.7917  20 O    0 0 0

  18 O    1     1.6344     3.0886 112 SI   0 0-1
  18 O    1     1.6452     3.1089 115 SI   1-1 0
  18 O    1     2.3367     4.4158  37 O    1 0 0
  18 O    1     2.5263     4.7741  11 O    0-1 0
  18 O    1     2.5487     4.8164  22 O    0-1-1
  18 O    1     2.6565     5.0200  14 O    0 0-1
  18 O    1     2.7900     5.2723  41 O    1 0-1
  18 O    1     3.0247     5.7158  32 O    1-1 0
  18 O    1     3.4529     6.5251 123 SI   1 0 0
  18 O    1     3.6155     6.8323 116 SI   0-1-1

  19 O    1     1.5689     2.9649 111 SI   0 0 0
  19 O    1     1.6296     3.0794 130 SI   0 0 0
  19 O    1     2.6600     5.0267   3 O    0-1 0
  19 O    1     2.6814     5.0672  52 O    0 0 0
  19 O    1     2.6825     5.0691  47 O    0 0 0
  19 O    1     2.7326     5.1638  49 O    0 0 0
  19 O    1     2.7512     5.1991  24 O    0 0 0
  19 O    1     2.7864     5.2656   9 O    0-1 0
  19 O    1     2.9236     5.5248  13 O    0 0 0
  19 O    1     3.5211     6.6540  65 SI   0 0 0

  20 O    1     1.6281     3.0767 113 SI   0 0 0
  20 O    1     1.6609     3.1386 121 SI   0 0 0
  20 O    1     2.4798     4.6862  47 O    0 0 0
  20 O    1     2.6197     4.9506  16 O    0 0-1
  20 O    1     2.6521     5.0118  10 O    0 0 0
  20 O    1     2.6994     5.1010  30 O    0 0 0
  20 O    1     3.0323     5.7302   1 O    0 0 0
  20 O    1     3.0406     5.7458  14 O    0 0-1
  20 O    1     3.0648     5.7917  17 O    0 0 0
  20 O    1     3.2245     6.0935   5 O    0 0 0

  21 O    1     1.6604     3.1376 114 SI   0 0 0
  21 O    1     1.6886     3.1910  66 SI   0 0 0
  21 O    1     2.4963     4.7173  56 O    1 0 0
  21 O    1     2.5948     4.9034  24 O    0 0 0
  21 O    1     2.7022     5.1065  39 O    0 0 0
  21 O    1     3.3505     6.3316 129 SI   0 0 0
  21 O    1     3.3927     6.4113  67 SI   0 0 0
  21 O    1     3.5475     6.7037  68 SI   0 0 0
  21 O    1     3.5643     6.7355  51 O    0 0 0
  21 O    1     3.5901     6.7843 111 SI   0 0 0

  22 O    1     1.6575     3.1323 112 SI   0 1 0
  22 O    1     1.7086     3.2287 116 SI   0 0 0
  22 O    1     2.4471     4.6244  14 O    0 1 0
  22 O    1     2.4751     4.6772   4 O    0 0 1
  22 O    1     2.5487     4.8164  18 O    0 1 1
  22 O    1     2.8954     5.4715  41 O    1 1 0
  22 O    1     3.0559     5.7749  17 O    0 1 1
  22 O    1     3.2569     6.1546  11 O    0 0 1
  22 O    1     3.2573     6.1554 107 SI   0 0 1
  22 O    1     3.2590     6.1587 101 SI   1 1 0

  23 O    1     1.6181     3.0577 123 SI   0 0 0
  23 O    1     2.1051     3.9781 109 SI   0 0 0
  23 O    1     2.3234     4.3906  44 O    0 0 0
  23 O    1     2.5612     4.8399  48 O    0 0 0
  23 O    1     2.6017     4.9165  43 O    0 0 0
  23 O    1     2.7794     5.2524   6 O   -1 0 0
  23 O    1     2.8054     5.3014  25 O    0 0 0
  23 O    1     2.9892     5.6488  56 O    0 0 0
  23 O    1     3.1345     5.9233  37 O    0 0 0
  23 O    1     3.2437     6.1297 114 SI  -1 0 0

  24 O    1     1.6378     3.0950 111 SI   0 0 0
  24 O    1     1.7283     3.2660 114 SI   0 0 0
  24 O    1     2.5911     4.8964  47 O    0 0 0
  24 O    1     2.5948     4.9034  21 O    0 0 0
  24 O    1     2.7512     5.1991  19 O    0 0 0
  24 O    1     2.8747     5.4324  39 O    0 0 0
  24 O    1     2.9185     5.5152  56 O    1 0 0
  24 O    1     3.1471     5.9472 132 SI   1 0 0
  24 O    1     3.1748     5.9995  43 O    1 0 0
  24 O    1     3.2742     6.1873  13 O    0 0 0

  25 O    1     1.5927     3.0098 109 SI   0 0 0
  25 O    1     1.6619     3.1406 117 SI   0 0 0
  25 O    1     2.4384     4.6079  55 O    0 0 0
  25 O    1     2.4407     4.6122   7 O    0 0 0
  25 O    1     2.5656     4.8483  36 O    0 0 0
  25 O    1     2.6436     4.9956  48 O    0 0 0
  25 O    1     2.8054     5.3014  23 O    0 0 0
  25 O    1     2.9457     5.5665  31 O    0 0 0
  25 O    1     3.1274     5.9100 106 SI  -1 0 0
  25 O    1     3.2047     6.0560  29 O    0 0 0

  26 O    1     1.6364     3.0924 118 SI   0 0 0
  26 O    1     1.7180     3.2466 119 SI   0 0 0
  26 O    1     2.5230     4.7678  34 O    0 0-1
  26 O    1     2.7033     5.1084  46 O    0 0 0
  26 O    1     2.7663     5.2276  32 O    0 0 0
  26 O    1     2.9120     5.5029  28 O    0 0-1
  26 O    1     2.9543     5.5828   5 O    0 0 0
  26 O    1     3.0487     5.7613  29 O    0 0 0
  26 O    1     3.2511     6.1436  35 O    0 0 0
  26 O    1     3.2556     6.1523  25 O    0 0 0

  27 O    1     1.6143     3.0505 132 SI   1 1 0
  27 O    1     1.6618     3.1403 108 SI   0 0 0
  27 O    1     2.5444     4.8082  12 O    0 0 0
  27 O    1     2.7333     5.1653   9 O    0 0 0
  27 O    1     2.7434     5.1842  13 O    0 1 0
  27 O    1     2.7889     5.2702  43 O    1 1 0
  27 O    1     2.8124     5.3147  53 O    1 1 0
  27 O    1     3.2367     6.1164  31 O    1 0 0
  27 O    1     3.3087     6.2525  11 O    0 0 0
  27 O    1     3.3509     6.3322  24 O    0 1 0

  28 O    1     1.6451     3.1089 119 SI   0 0 1
  28 O    1     1.7274     3.2643  99 SI   0 0 0
  28 O    1     2.4088     4.5520  32 O    0 0 1
  28 O    1     2.6084     4.9291  46 O    0 0 1
  28 O    1     2.7610     5.2176  41 O    0 1 0
  28 O    1     2.8806     5.4436  29 O    0 0 1
  28 O    1     2.9120     5.5029  26 O    0 0 1
  28 O    1     3.0320     5.7297  98 SI   0 0 0
  28 O    1     3.1178     5.8917  92 SI  -1 0 0
  28 O    1     3.3623     6.3538 115 SI   0 0 1

  29 O    1     1.6026     3.0285 106 SI  -1 0 0
  29 O    1     1.6292     3.0787 122 SI   0 0 0
  29 O    1     2.5403     4.8004   6 O   -1 0 0
  29 O    1     2.6093     4.9308  55 O    0 0 0
  29 O    1     2.7652     5.2255  40 O    0 0 0
  29 O    1     2.8250     5.3385   2 O   -1 0 0
  29 O    1     2.8806     5.4436  28 O    0 0-1
  29 O    1     3.0353     5.7359  32 O    0 0 0
  29 O    1     3.0487     5.7613  26 O    0 0 0
  29 O    1     3.1110     5.8790 119 SI   0 0 0

  30 O    1     1.6477     3.1137 125 SI   0 0 0
  30 O    1     1.9949     3.7699 121 SI   0 0 0
  30 O    1     2.2863     4.3204 118 SI   0 0 0
  30 O    1     2.5395     4.7989  40 O    0 0 0
  30 O    1     2.5728     4.8620   5 O    0 0 0
  30 O    1     2.6348     4.9790   7 O    0 0 0
  30 O    1     2.6994     5.1010  20 O    0 0 0
  30 O    1     2.7512     5.1991  38 O    0 0 0
  30 O    1     2.7920     5.2761  44 O    0 0 0
  30 O    1     2.8702     5.4238   1 O    0 0 0

  31 O    1     1.6500     3.1181 131 SI  -1 0 0
  31 O    1     1.6793     3.1734 117 SI   0 0 0
  31 O    1     2.5593     4.8363  55 O    0 0 0
  31 O    1     2.5770     4.8699  12 O   -1 0 0
  31 O    1     2.5816     4.8786  39 O   -1 0 0
  31 O    1     2.6965     5.0957  54 O   -1 0 0
  31 O    1     2.7827     5.2585  36 O    0 0 0
  31 O    1     2.9457     5.5665  25 O    0 0 0
  31 O    1     3.0799     5.8201  45 O    0 0 0
  31 O    1     3.2006     6.0484  48 O    0 0 0

  32 O    1     1.6297     3.0796 119 SI   0 0 0
  32 O    1     1.6313     3.0827 115 SI   0 0 0
  32 O    1     2.4088     4.5520  28 O    0 0-1
  32 O    1     2.6462     5.0007  11 O   -1 0 0
  32 O    1     2.6503     5.0083  37 O    0 1 0
  32 O    1     2.7126     5.1260  46 O    0 0 0
  32 O    1     2.7663     5.2276  26 O    0 0 0
  32 O    1     2.8204     5.3299  55 O    0 0 0
  32 O    1     2.9605     5.5946  36 O    0 0 0
  32 O    1     3.0247     5.7158  18 O   -1 1 0

  33 O    1     1.6545     3.1266 128 SI   0 1 0
  33 O    1     2.6140     4.9398 132 SI   0 1 0
  33 O    1     2.6923     5.0877 120 SI   0 0 0
  33 O    1     2.7694     5.2334   3 O    0 0 0
  33 O    1     2.7932     5.2784  74 SI   0 0 0
  33 O    1     2.8366     5.3604  36 O    0 0 0
  33 O    1     2.8521     5.3897  52 O    0 1 0
  33 O    1     2.9249     5.5273  53 O    0 1 0
  33 O    1     3.0996     5.8573  81 SI   0 1 0
  33 O    1     3.1704     5.9912  43 O    0 1 0

  34 O    1     1.7388     3.2858 118 SI   0 0 1
  34 O    1     1.7891     3.3808 100 SI   0 0 0
  34 O    1     2.5230     4.7678  26 O    0 0 1
  34 O    1     2.7401     5.1781   5 O    0 0 1
  34 O    1     2.8986     5.4776 122 SI   0 0 1
  34 O    1     3.0719     5.8051  40 O    0 0 1
  34 O    1     3.1571     5.9660  30 O    0 0 1
  34 O    1     3.1971     6.0417  89 SI   0 0 0
  34 O    1     3.4890     6.5933 119 SI   0 0 1
  34 O    1     3.5007     6.6154  95 SI   0 0 0

  35 O    1     1.6346     3.0889 127 SI   0 0 0
  35 O    1     1.7137     3.2384 120 SI   0 0 0
  35 O    1     2.2703     4.2903   3 O    0 0 0
  35 O    1     2.5591     4.8359  50 O    0 0 0
  35 O    1     2.5609     4.8393  42 O    0 1 0
  35 O    1     2.5682     4.8531   8 O    0 0 0
  35 O    1     2.7565     5.2090  36 O    0 0 0
  35 O    1     2.8925     5.4661  13 O    0 1 0
  35 O    1     2.9896     5.6494 105 SI   0 0 0
  35 O    1     3.2511     6.1436  26 O    0 0 0

  36 O    1     1.6736     3.1626 120 SI   0 0 0
  36 O    1     1.7075     3.2267 117 SI   0 0 0
  36 O    1     2.5656     4.8483  25 O    0 0 0
  36 O    1     2.7043     5.1104  50 O    0 0 0
  36 O    1     2.7565     5.2090  35 O    0 0 0
  36 O    1     2.7827     5.2585  31 O    0 0 0
  36 O    1     2.8366     5.3604  33 O    0 0 0
  36 O    1     2.9605     5.5946  32 O    0 0 0
  36 O    1     3.0102     5.6885  55 O    0 0 0
  36 O    1     3.0763     5.8133   3 O    0 0 0

  37 O    1     1.6399     3.0989 123 SI   0 0 0
  37 O    1     1.7681     3.3412 115 SI   0-1 0
  37 O    1     2.3367     4.4158  18 O   -1 0 0
  37 O    1     2.5099     4.7431  43 O    0 0 0
  37 O    1     2.6503     5.0083  32 O    0-1 0
  37 O    1     2.8149     5.3194  44 O    0 0 0
  37 O    1     3.1345     5.9233  23 O    0 0 0
  37 O    1     3.2427     6.1278  11 O   -1-1 0
  37 O    1     3.4365     6.4940 132 SI   0 0 0
  37 O    1     3.5296     6.6700  27 O   -1-1 0

  38 O    1     1.6489     3.1159 125 SI   0 0 0
  38 O    1     1.6770     3.1691 124 SI   0 0 0
  38 O    1     2.6214     4.9538  46 O    0-1 0
  38 O    1     2.6444     4.9971  42 O    0 0 0
  38 O    1     2.7223     5.1443  40 O    0 0 0
  38 O    1     2.7323     5.1634  44 O    0 0 0
  38 O    1     2.7512     5.1991  30 O    0 0 0
  38 O    1     2.7973     5.2861 104 SI   0 0-1
  38 O    1     2.9376     5.5512  17 O    0 0 0
  38 O    1     3.4062     6.4368  16 O    0 0-1

  39 O    1     1.6731     3.1617 131 SI   0 0 0
  39 O    1     1.6890     3.1918 114 SI   0 0 0
  39 O    1     2.5816     4.8786  31 O    1 0 0
  39 O    1     2.6987     5.0998  56 O    1 0 0
  39 O    1     2.7022     5.1065  21 O    0 0 0
  39 O    1     2.7766     5.2471  12 O    0 0 0
  39 O    1     2.8747     5.4324  24 O    0 0 0
  39 O    1     2.8978     5.4761  54 O    0 0 0
  39 O    1     3.1796     6.0086   1 O    0 0 0
  39 O    1     3.3625     6.3542  23 O    1 0 0

  40 O    1     1.6222     3.0656 122 SI   0 0 0
  40 O    1     1.6679     3.1519 125 SI   0 0 0
  40 O    1     2.5395     4.7989  30 O    0 0 0
  40 O    1     2.7223     5.1443  38 O    0 0 0
  40 O    1     2.7652     5.2255  29 O    0 0 0
  40 O    1     2.7797     5.2529  44 O    0 0 0
  40 O    1     3.0719     5.8051  34 O    0 0-1
  40 O    1     3.2251     6.0945   6 O   -1 0 0
  40 O    1     3.2473     6.1364 103 SI   0 0-1
  40 O    1     3.3135     6.2616 118 SI   0 0 0

  41 O    1     1.6576     3.1323  99 SI   0-1 0
  41 O    1     1.8536     3.5027 112 SI  -1 0 0
  41 O    1     2.3828     4.5028 101 SI   0 0 0
  41 O    1     2.7610     5.2176  28 O    0-1 0
  41 O    1     2.7900     5.2723  18 O   -1 0 1
  41 O    1     2.8947     5.4702  96 SI  -1 0 0
  41 O    1     2.8954     5.4715  22 O   -1-1 0
  41 O    1     3.2261     6.0965  46 O    0-1 1
  41 O    1     3.3931     6.4121  14 O   -1 0 0
  41 O    1     3.4524     6.5241 104 SI   0 0 0

  42 O    1     1.5937     3.0117 127 SI   0-1 0
  42 O    1     1.6410     3.1011 124 SI   0 0 0
  42 O    1     2.3167     4.3780  17 O    0 0 0
  42 O    1     2.5211     4.7642  46 O    0-1 0
  42 O    1     2.5609     4.8393  35 O    0-1 0
  42 O    1     2.6444     4.9971  38 O    0 0 0
  42 O    1     2.7648     5.2248   8 O    0-1 0
  42 O    1     2.8492     5.3842  13 O    0 0 0
  42 O    1     3.4670     6.5517  47 O    0 0 0
  42 O    1     3.5718     6.7498 116 SI   0-1-1

  43 O    1     1.6206     3.0625 132 SI   0 0 0
  43 O    1     1.7389     3.2860 123 SI   0 0 0
  43 O    1     2.5099     4.7431  37 O    0 0 0
  43 O    1     2.6017     4.9165  23 O    0 0 0
  43 O    1     2.6977     5.0979  53 O    0 0 0
  43 O    1     2.7889     5.2702  27 O   -1-1 0
  43 O    1     2.7986     5.2887  56 O    0 0 0
  43 O    1     3.1704     5.9912  33 O    0-1 0
  43 O    1     3.1748     5.9995  24 O   -1 0 0
  43 O    1     3.3108     6.2565  44 O    0 0 0

  44 O    1     1.7031     3.2183 125 SI   0 0 0
  44 O    1     1.8940     3.5792 123 SI   0 0 0
  44 O    1     2.2696     4.2888 109 SI   0 0 0
  44 O    1     2.3234     4.3906  23 O    0 0 0
  44 O    1     2.7323     5.1634  38 O    0 0 0
  44 O    1     2.7797     5.2529  40 O    0 0 0
  44 O    1     2.7920     5.2761  30 O    0 0 0
  44 O    1     2.8149     5.3194  37 O    0 0 0
  44 O    1     2.9134     5.5055   7 O    0 0 0
  44 O    1     3.3108     6.2565  43 O    0 0 0

  45 O    1     1.6881     3.1900 126 SI   0 0 0
  45 O    1     1.6961     3.2052  73 SI   0 0 0
  45 O    1     2.5571     4.8322  48 O    0 0 0
  45 O    1     2.6413     4.9913  56 O    0 0 0
  45 O    1     2.9086     5.4965  15 O    0 0 0
  45 O    1     3.0799     5.8201  31 O    0 0 0
  45 O    1     3.1385     5.9310  83 SI   0 0 0
  45 O    1     3.1820     6.0131  82 SI   0 0 0
  45 O    1     3.3273     6.2877  54 O   -1 0 0
  45 O    1     3.5233     6.6580 131 SI  -1 0 0

  46 O    1     1.5997     3.0230 119 SI   0 0 0
  46 O    1     1.7057     3.2234 124 SI   0 1 0
  46 O    1     2.5211     4.7642  42 O    0 1 0
  46 O    1     2.6084     4.9291  28 O    0 0-1
  46 O    1     2.6214     4.9538  38 O    0 1 0
  46 O    1     2.7033     5.1084  26 O    0 0 0
[...]
 101 SI   1     3.2590     6.1587  22 O   -1-1 0
 101 SI   1     3.7675     7.1196  90 SI  -1-1 0
 101 SI   1     3.8092     7.1984  77 SI   0-1 0
 101 SI   1     3.8576     7.2897  85 SI   0 0 0

 102 SI   1     2.3949     4.5256 104 SI   0 0 0
 102 SI   1     2.4037     4.5423  88 SI   0 0 0
 102 SI   1     2.4226     4.5781  87 SI   0 0 0
 102 SI   1     2.4295     4.5911 103 SI   0 0 0
 102 SI   1     3.4032     6.4311  93 SI   0 0 0
 102 SI   1     3.7283     7.0454  89 SI   0 0 0
 102 SI   1     3.8464     7.2686  41 O    0 0 0
 102 SI   1     3.9488     7.4622  69 SI   0 0 0
 102 SI   1     3.9684     7.4992 101 SI   0 0 0
 102 SI   1     3.9699     7.5020  95 SI   0 0 0

 103 SI   1     2.3503     4.4413  97 SI   0 0 0
 103 SI   1     2.3660     4.4711 122 SI   0 0 1
 103 SI   1     2.4295     4.5911 102 SI   0 0 0
 103 SI   1     2.6470     5.0020  96 SI  -1 0 0
 103 SI   1     3.2473     6.1364  40 O    0 0 1
 103 SI   1     3.4680     6.5535  72 SI  -1 0 0
 103 SI   1     3.5385     6.6867  87 SI   0 0 0
 103 SI   1     3.7095     7.0100  29 O    0 0 1
 103 SI   1     3.7418     7.0710  34 O    0 0 0
 103 SI   1     3.7668     7.1183  92 SI  -1 0 0

 104 SI   1     2.3459     4.4331  93 SI   0 0 0
 104 SI   1     2.3949     4.5256 102 SI   0 0 0
 104 SI   1     2.7537     5.2038 124 SI   0 0 1
 104 SI   1     2.7973     5.2861  38 O    0 0 1
 104 SI   1     2.8168     5.3229  16 O    0 0 0
 104 SI   1     3.1092     5.8756  17 O    0 0 1
 104 SI   1     3.2838     6.2055  46 O    0-1 1
 104 SI   1     3.4524     6.5241  41 O    0 0 0
 104 SI   1     3.5507     6.7099  99 SI   0-1 0
 104 SI   1     3.7685     7.1215  95 SI   0 0 0

 105 SI   1     1.5458     2.9212   7 O    0 0 0
 105 SI   1     1.9954     3.7708  50 O    0 0 0
 105 SI   1     2.0187     3.8149   1 O    0 0 0
 105 SI   1     2.9896     5.6494  35 O    0 0 0
 105 SI   1     3.0790     5.8185 109 SI   0 0 0
 105 SI   1     3.0933     5.8454 120 SI   0 0 0
 105 SI   1     3.1671     5.9849 121 SI   0 0 0
 105 SI   1     3.3520     6.3344  25 O    0 0 0
 105 SI   1     3.4677     6.5530  51 O    0 0 0
 105 SI   1     3.4836     6.5831  30 O    0 0 0

 106 SI   1     1.6026     3.0285  29 O    1 0 0
 106 SI   1     1.6114     3.0450   6 O    0 0 0
 106 SI   1     1.6701     3.1560  55 O    1 0 0
 106 SI   1     1.7422     3.2923   2 O    0 0 0
 106 SI   1     2.8260     5.3404 122 SI   1 0 0
 106 SI   1     3.0889     5.8371 107 SI   0 0 0
 106 SI   1     3.1044     5.8664 117 SI   1 0 0
 106 SI   1     3.1274     5.9100  25 O    1 0 0
 106 SI   1     3.2539     6.1491  11 O    0 0 0
 106 SI   1     3.3148     6.2641  10 O    0 0 0

 107 SI   1     1.6453     3.1092   8 O    0 0 0
 107 SI   1     1.6489     3.1160   4 O    0 0 0
 107 SI   1     1.6540     3.1256   2 O    0 0 0
 107 SI   1     1.7490     3.3051  11 O    0 0 0
 107 SI   1     3.0032     5.6752 116 SI   0 0-1
 107 SI   1     3.0053     5.6793   5 O    0 0 0
 107 SI   1     3.0889     5.8371 106 SI   0 0 0
 107 SI   1     3.0933     5.8455 127 SI   0 0 0
 107 SI   1     3.2067     6.0598  55 O    1 0 0
 107 SI   1     3.2573     6.1554  22 O    0 0-1

 108 SI   1     1.6252     3.0712  12 O    0 0 0
 108 SI   1     1.6504     3.1189   9 O    0 0 0
 108 SI   1     1.6618     3.1403  27 O    0 0 0
 108 SI   1     1.8433     3.4834  13 O    0 1 0
 108 SI   1     2.9701     5.6127 131 SI   0 0 0
 108 SI   1     3.0844     5.8287 127 SI   0 0 0
 108 SI   1     3.1347     5.9238 132 SI   1 1 0
 108 SI   1     3.1813     6.0117   8 O    0 0 0
 108 SI   1     3.3095     6.2540  54 O    0 0 0
 108 SI   1     3.3571     6.3440 111 SI   0 1 0

 109 SI   1     1.5927     3.0098  25 O    0 0 0
 109 SI   1     1.6213     3.0638  48 O    0 0 0
 109 SI   1     1.7020     3.2164   7 O    0 0 0
 109 SI   1     2.1051     3.9781  23 O    0 0 0
 109 SI   1     2.2696     4.2888  44 O    0 0 0
 109 SI   1     2.9638     5.6009 117 SI   0 0 0
 109 SI   1     3.0607     5.7839 123 SI   0 0 0
 109 SI   1     3.0790     5.8185 105 SI   0 0 0
 109 SI   1     3.1907     6.0295 125 SI   0 0 0
 109 SI   1     3.2257     6.0957 126 SI   0 0 0

 110 SI   1     1.6380     3.0953  10 O    0 0 1
 110 SI   1     2.3070     4.3596  95 SI   0 0 0
 110 SI   1     2.5647     4.8465  92 SI   0 0 0
 110 SI   1     2.7867     5.2662   2 O    0 0 1
 110 SI   1     2.9959     5.6615 113 SI   0 0 1
 110 SI   1     3.0110     5.6900   5 O    0 0 1
 110 SI   1     3.1260     5.9072  16 O    0 0 0
 110 SI   1     3.3560     6.3419   4 O    0 0 1
 110 SI   1     3.4933     6.6014  94 SI   0 0 0
 110 SI   1     3.5582     6.7241  90 SI   0 0 0

 111 SI   1     1.5689     2.9649  19 O    0 0 0
 111 SI   1     1.6023     3.0278  47 O    0 0 0
 111 SI   1     1.6378     3.0950  24 O    0 0 0
 111 SI   1     2.2404     4.2338  13 O    0 0 0
 111 SI   1     3.0282     5.7225 130 SI   0 0 0
 111 SI   1     3.1807     6.0107   9 O    0-1 0
 111 SI   1     3.2183     6.0817 114 SI   0 0 0
 111 SI   1     3.2722     6.1835 121 SI   0 0 0
 111 SI   1     3.3571     6.3440 108 SI   0-1 0
 111 SI   1     3.5793     6.7639   3 O    0-1 0

 112 SI   1     1.6344     3.0886  18 O    0 0 1
 112 SI   1     1.6575     3.1323  22 O    0-1 0
 112 SI   1     1.7692     3.3433  14 O    0 0 0
 112 SI   1     1.8536     3.5027  41 O    1 0 0
 112 SI   1     2.4852     4.6963  96 SI   0 0 0
 112 SI   1     2.9717     5.6157 115 SI   1-1 1
 112 SI   1     3.0666     5.7950 116 SI   0-1 0
 112 SI   1     3.1081     5.8734 101 SI   1 0 0
 112 SI   1     3.1556     5.9632  99 SI   1-1 0
 112 SI   1     3.3847     6.3961 113 SI   0 0 1

 113 SI   1     1.6210     3.0633  10 O    0 0 0
 113 SI   1     1.6281     3.0767  20 O    0 0 0
 113 SI   1     1.6722     3.1600  16 O    0 0-1
 113 SI   1     1.7083     3.2282  14 O    0 0-1
 113 SI   1     2.8522     5.3899  17 O    0 0 0
 113 SI   1     2.8686     5.4209  95 SI   0 0-1
 113 SI   1     2.9959     5.6615 110 SI   0 0-1
 113 SI   1     3.2160     6.0774 121 SI   0 0 0
 113 SI   1     3.3829     6.3928  96 SI   0 0-1
 113 SI   1     3.3847     6.3961 112 SI   0 0-1

 114 SI   1     1.6043     3.0316  56 O    1 0 0
 114 SI   1     1.6604     3.1376  21 O    0 0 0
 114 SI   1     1.6890     3.1918  39 O    0 0 0
 114 SI   1     1.7283     3.2660  24 O    0 0 0
 114 SI   1     3.1253     5.9059 131 SI   0 0 0
 114 SI   1     3.2183     6.0817 111 SI   0 0 0
 114 SI   1     3.2298     6.1033 126 SI   1 0 0
 114 SI   1     3.2437     6.1297  23 O    1 0 0
 114 SI   1     3.2501     6.1419  66 SI   0 0 0
 114 SI   1     3.3638     6.3566  43 O    1 0 0

 115 SI   1     1.6313     3.0827  32 O    0 0 0
 115 SI   1     1.6452     3.1089  18 O   -1 1 0
 115 SI   1     1.7151     3.2410  11 O   -1 0 0
 115 SI   1     1.7681     3.3412  37 O    0 1 0
 115 SI   1     2.9717     5.6157 112 SI  -1 1-1
 115 SI   1     3.0675     5.7968 119 SI   0 0 0
 115 SI   1     3.2949     6.2265  55 O    0 0 0
 115 SI   1     3.3472     6.3253 123 SI   0 1 0
 115 SI   1     3.3623     6.3538  28 O    0 0-1
 115 SI   1     3.3634     6.3559 107 SI  -1 0 0

 116 SI   1     1.6489     3.1159   4 O    0 0 1
 116 SI   1     1.7086     3.2287  22 O    0 0 0
 116 SI   1     1.7399     3.2880  17 O    0 1 1
 116 SI   1     2.5839     4.8828  91 SI   0 0 0
 116 SI   1     2.9300     5.5370  14 O    0 1 0
 116 SI   1     3.0032     5.6752 107 SI   0 0 1
 116 SI   1     3.0666     5.7950 112 SI   0 1 0
 116 SI   1     3.1719     5.9941 124 SI   0 1 1
 116 SI   1     3.5718     6.7498  42 O    0 1 1
 116 SI   1     3.6155     6.8323  18 O    0 1 1

 117 SI   1     1.6339     3.0877  55 O    0 0 0
 117 SI   1     1.6619     3.1406  25 O    0 0 0
 117 SI   1     1.6793     3.1734  31 O    0 0 0
 117 SI   1     1.7075     3.2267  36 O    0 0 0
 117 SI   1     2.9638     5.6009 109 SI   0 0 0
 117 SI   1     3.1044     5.8664 106 SI  -1 0 0
 117 SI   1     3.1441     5.9414 131 SI  -1 0 0
 117 SI   1     3.1723     5.9948  32 O    0 0 0
 117 SI   1     3.2124     6.0706 120 SI   0 0 0
 117 SI   1     3.2780     6.1944  48 O    0 0 0

 118 SI   1     1.5355     2.9016   5 O    0 0 0
 118 SI   1     1.6364     3.0924  26 O    0 0 0
 118 SI   1     1.7388     3.2858  34 O    0 0-1
 118 SI   1     2.2863     4.3204  30 O    0 0 0
 118 SI   1     3.0033     5.6754 100 SI   0 0-1
 118 SI   1     3.2234     6.0913 119 SI   0 0 0
 118 SI   1     3.3135     6.2616  40 O    0 0 0
 118 SI   1     3.5294     6.6696 125 SI   0 0 0
 118 SI   1     3.5621     6.7314 121 SI   0 0 0
 118 SI   1     3.5877     6.7797   8 O    0 0 0

 119 SI   1     1.5997     3.0230  46 O    0 0 0
 119 SI   1     1.6297     3.0796  32 O    0 0 0
 119 SI   1     1.6451     3.1089  28 O    0 0-1
 119 SI   1     1.7180     3.2466  26 O    0 0 0
 119 SI   1     2.9081     5.4956  99 SI   0 0-1
 119 SI   1     3.0675     5.7968 115 SI   0 0 0
 119 SI   1     3.1110     5.8790  29 O    0 0 0
 119 SI   1     3.2234     6.0913 118 SI   0 0 0
 119 SI   1     3.2616     6.1635 124 SI   0 1 0
 119 SI   1     3.4873     6.5901  41 O    0 1-1

 120 SI   1     1.6200     3.0613  50 O    0 0 0
 120 SI   1     1.6736     3.1626  36 O    0 0 0
 120 SI   1     1.7137     3.2384  35 O    0 0 0
 120 SI   1     1.7186     3.2476   3 O    0 0 0
 120 SI   1     2.6923     5.0877  33 O    0 0 0
 120 SI   1     3.0933     5.8454 105 SI   0 0 0
 120 SI   1     3.1610     5.9733 130 SI   0 1 0
 120 SI   1     3.2124     6.0706 117 SI   0 0 0
 120 SI   1     3.2363     6.1158 127 SI   0 0 0
 120 SI   1     3.5330     6.6763  25 O    0 0 0

 121 SI   1     1.6000     3.0236   1 O    0 0 0
 121 SI   1     1.6609     3.1386  20 O    0 0 0
 121 SI   1     1.7130     3.2371  47 O    0 0 0
 121 SI   1     1.9949     3.7699  30 O    0 0 0
 121 SI   1     2.8865     5.4548   7 O    0 0 0
 121 SI   1     2.9155     5.5095   5 O    0 0 0
 121 SI   1     3.1671     5.9849 105 SI   0 0 0
 121 SI   1     3.1678     5.9863 125 SI   0 0 0
 121 SI   1     3.2160     6.0774 113 SI   0 0 0
 121 SI   1     3.2722     6.1835 111 SI   0 0 0

 122 SI   1     1.6222     3.0656  40 O    0 0 0
 122 SI   1     1.6292     3.0787  29 O    0 0 0
 122 SI   1     2.3660     4.4711 103 SI   0 0-1
 122 SI   1     2.8260     5.3404 106 SI  -1 0 0
 122 SI   1     2.8765     5.4359   6 O   -1 0 0
 122 SI   1     2.8986     5.4776  34 O    0 0-1
 122 SI   1     3.2780     6.1945 125 SI   0 0 0
 122 SI   1     3.5057     6.6249  26 O    0 0 0
 122 SI   1     3.6145     6.8304 118 SI   0 0 0
 122 SI   1     3.6964     6.9852  28 O    0 0-1

 123 SI   1     1.6181     3.0577  23 O    0 0 0
 123 SI   1     1.6399     3.0989  37 O    0 0 0
 123 SI   1     1.7389     3.2860  43 O    0 0 0
 123 SI   1     1.8940     3.5792  44 O    0 0 0
 123 SI   1     3.0607     5.7839 109 SI   0 0 0
 123 SI   1     3.2402     6.1232 132 SI   0 0 0
 123 SI   1     3.3249     6.2831 125 SI   0 0 0
 123 SI   1     3.3472     6.3253 115 SI   0-1 0
 123 SI   1     3.4529     6.5251  18 O   -1 0 0
 123 SI   1     3.5101     6.6331  48 O    0 0 0

 124 SI   1     1.6410     3.1011  42 O    0 0 0
 124 SI   1     1.6770     3.1691  38 O    0 0 0
 124 SI   1     1.7057     3.2234  46 O    0-1 0
 124 SI   1     1.7155     3.2418  17 O    0 0 0
 124 SI   1     2.7537     5.2038 104 SI   0 0-1
 124 SI   1     3.1623     5.9758 127 SI   0-1 0
 124 SI   1     3.1719     5.9941 116 SI   0-1-1
 124 SI   1     3.2616     6.1635 119 SI   0-1 0
 124 SI   1     3.2677     6.1751 125 SI   0 0 0
 124 SI   1     3.5907     6.7854  16 O    0 0-1

 125 SI   1     1.6477     3.1137  30 O    0 0 0
 125 SI   1     1.6489     3.1159  38 O    0 0 0
 125 SI   1     1.6679     3.1519  40 O    0 0 0
 125 SI   1     1.7031     3.2183  44 O    0 0 0
 125 SI   1     3.1678     5.9863 121 SI   0 0 0
 125 SI   1     3.1907     6.0295 109 SI   0 0 0
 125 SI   1     3.2677     6.1751 124 SI   0 0 0
 125 SI   1     3.2780     6.1945 122 SI   0 0 0
 125 SI   1     3.2967     6.2298   7 O    0 0 0
 125 SI   1     3.3249     6.2831 123 SI   0 0 0

 126 SI   1     1.6425     3.1038  48 O    0 0 0
 126 SI   1     1.6881     3.1900  45 O    0 0 0
 126 SI   1     1.7088     3.2291  56 O    0 0 0
 126 SI   1     2.2095     4.1754  15 O    0 0 0
 126 SI   1     2.3817     4.5008  82 SI   0 0 0
 126 SI   1     2.9619     5.5972  73 SI   0 0 0
 126 SI   1     3.2257     6.0957 109 SI   0 0 0
 126 SI   1     3.2298     6.1033 114 SI  -1 0 0
 126 SI   1     3.4969     6.6082  23 O    0 0 0
 126 SI   1     3.5466     6.7022  83 SI   0 0 0

 127 SI   1     1.5937     3.0117  42 O    0 1 0
 127 SI   1     1.6346     3.0889  35 O    0 0 0
 127 SI   1     1.6347     3.0892   8 O    0 0 0
 127 SI   1     1.7798     3.3633  13 O    0 1 0
 127 SI   1     3.0532     5.7698   3 O    0 0 0
 127 SI   1     3.0844     5.8287 108 SI   0 0 0
 127 SI   1     3.0933     5.8455 107 SI   0 0 0
 127 SI   1     3.1623     5.9758 124 SI   0 1 0
 127 SI   1     3.2363     6.1158 120 SI   0 0 0
 127 SI   1     3.3886     6.4035  17 O    0 1 0

 128 SI   1     1.6356     3.0908  52 O    0 0 0
 128 SI   1     1.6545     3.1266  33 O    0-1 0
 128 SI   1     2.6291     4.9682  81 SI   0 0 0
 128 SI   1     2.6649     5.0359  74 SI   0-1 0
 128 SI   1     2.7272     5.1536 130 SI   0 0 0
 128 SI   1     2.7272     5.1537  49 O    0 0 0
 128 SI   1     3.0457     5.7556  53 O    0 0 0
 128 SI   1     3.0576     5.7780   3 O    0-1 0
 128 SI   1     3.1337     5.9219  75 SI   0-1 0
 128 SI   1     3.1394     5.9326  82 SI   0 0 0

 129 SI   1     1.6800     3.1748  51 O    0 0 0
 129 SI   1     1.7084     3.2285  15 O    0 0 0
 129 SI   1     2.8983     5.4770  57 SI   0 0 0
 129 SI   1     3.0699     5.8013  82 SI   0 0 0
 129 SI   1     3.1043     5.8662  67 SI   0 0 0
 129 SI   1     3.2904     6.2179  66 SI   0 0 0
 129 SI   1     3.3505     6.3316  21 O    0 0 0
 129 SI   1     3.6098     6.8215  52 O    0 0 0
 129 SI   1     3.6484     6.8944  19 O    0 0 0
 129 SI   1     3.6786     6.9516  84 SI   0 0 0

 130 SI   1     1.5762     2.9787   3 O    0-1 0
 130 SI   1     1.5985     3.0208  49 O    0 0 0
 130 SI   1     1.6296     3.0794  19 O    0 0 0
 130 SI   1     1.7464     3.3003  52 O    0 0 0
 130 SI   1     2.5987     4.9109   9 O    0-1 0
 130 SI   1     2.7272     5.1536 128 SI   0 0 0
 130 SI   1     2.9942     5.6582  65 SI   0 0 0
 130 SI   1     3.0282     5.7225 111 SI   0 0 0
 130 SI   1     3.1610     5.9733 120 SI   0-1 0
 130 SI   1     3.3023     6.2404  33 O    0-1 0

 131 SI   1     1.6500     3.1181  31 O    1 0 0
 131 SI   1     1.6543     3.1261  54 O    0 0 0
 131 SI   1     1.6731     3.1617  39 O    0 0 0
 131 SI   1     1.6770     3.1691  12 O    0 0 0
 131 SI   1     2.9701     5.6127 108 SI   0 0 0
 131 SI   1     3.1253     5.9059 114 SI   0 0 0
 131 SI   1     3.1441     5.9414 117 SI   1 0 0
 131 SI   1     3.1917     6.0314  58 SI   0 0 0
 131 SI   1     3.3394     6.3105  55 O    1 0 0
 131 SI   1     3.3804     6.3880  27 O    0 0 0

 132 SI   1     1.6060     3.0350  53 O    0 0 0
 132 SI   1     1.6143     3.0505  27 O   -1-1 0
 132 SI   1     1.6206     3.0625  43 O    0 0 0
 132 SI   1     2.6140     4.9398  33 O    0-1 0
 132 SI   1     3.1015     5.8609  81 SI   0 0 0
 132 SI   1     3.1347     5.9238 108 SI  -1-1 0
 132 SI   1     3.1471     5.9472  24 O   -1 0 0
 132 SI   1     3.2402     6.1232 123 SI   0 0 0
 132 SI   1     3.3827     6.3924 128 SI   0 0 0
 132 SI   1     3.4222     6.4671  56 O    0 0 0


 SYMMETRY ALLOWED ELASTIC DISTORTION 1
  0.5773503  0.0000000  0.0000000
  0.0000000  0.5773503  0.0000000
  0.0000000  0.0000000  0.5773503

 SYMMETRY ALLOWED ELASTIC DISTORTION 2
  0.8164966  0.0000000  0.0000000
  0.0000000 -0.4082483  0.0000000
  0.0000000  0.0000000 -0.4082483

 SYMMETRY ALLOWED ELASTIC DISTORTION 3
  0.0000000  0.7071068  0.0000000
  0.7071068  0.0000000  0.0000000
  0.0000000  0.0000000  0.0000000

 SYMMETRY ALLOWED ELASTIC DISTORTION 4
  0.0000000  0.0000000  0.0000000
  0.0000000  0.7071068  0.0000000
  0.0000000  0.0000000 -0.7071068

 SYMMETRY ALLOWED ELASTIC DISTORTION 5
  0.0000000  0.0000000  0.7071068
  0.0000000  0.0000000  0.0000000
  0.7071068  0.0000000  0.0000000

 SYMMETRY ALLOWED ELASTIC DISTORTION 6
  0.0000000  0.0000000  0.0000000
  0.0000000  0.0000000  0.7071068
  0.0000000  0.7071068  0.0000000

 SYMMETRY ALLOWED INTERNAL DEGREE(S) OF FREEDOM: 393
 TTTTTTTTTTTTTTTTTTTTTTTTTTTTTT SYMM        TELAPSE        6.07 TCPU        6.04
 TTTTTTTTTTTTTTTTTTTTTTTTTTTTTT INT_SCREEN  TELAPSE        6.87 TCPU        6.85
 *******************************************************************************
 COORDINATE AND CELL OPTIMIZATION - POINT    1
 INFORMATION **** EXCBUF **** EXCH. BIPO BUFFER: WORDS USED =    360000
 WARNING **** EXCBUF **** EXCH. BIPO BUFFER TOO SMALL - TO AVOID I/O SET EXCHSIZE =  10884636

 DFT PARAMETERS

     ATOM       ELECTRONS   NET CHARGE   R(ANGSTROM)
   1   8  O       8.0000      0.0000     0.74000000
  57  14  SI     14.0000      0.0000     1.17000000

 SIZE OF GRID=    3823930
 TTTTTTTTTTTTTTTTTTTTTTTTTTTTTT MAKEGRID    TELAPSE     1058.95 TCPU     1057.33
 BECKE WEIGHT FUNCTION
 RADSAFE =     2.00
 TOLERANCES - DENSITY:10**- 6; POTENTIAL:10**- 9; GRID WGT:10**-14

 RADIAL INTEGRATION  - INTERVALS (POINTS,UPPER LIMIT):            1( 75,  4.0*R)

 ANGULAR INTEGRATION - INTERVALS (ACCURACY LEVEL [N. POINTS] UPPER LIMIT):
  1(  4[  86]   0.2)  2(  8[ 194]   0.5)  3( 12[ 350]   0.9)  4( 16[ 974]   3.5)
  5( 12[ 350]9999.0)
 TTTTTTTTTTTTTTTTTTTTTTTTTTTTTT INT_CALC    TELAPSE     1062.45 TCPU     1060.76

 *******************************************************************************
 Created with astools                                                            
 CRYSTAL - SCF - TYPE OF CALCULATION :  RESTRICTED CLOSED SHELL
 *******************************************************************************

 CAPPA: IS1=  1 IS2=  1 IS3=  1K POINTS MONKHORST NET    1 SYMMOPS K SPACE  2 SYMMOPS G SPACE  1


 CAPPA1: ISJ1=  1 ISJ2=  1 ISJ3=  1K POINTS GILAT NET    1 SYMMOPS K SPACE  2 SYMMOPS G SPACE  1

 WARNING **** GENBUD **** COUL. BIPO BUFFER TOO SMALL - TO AVOID I/O SET BIPOSIZE =   1051925
 TTTTTTTTTTTTTTTTTTTTTTTTTTTTTT SDIK        TELAPSE     1082.54 TCPU     1080.70

 AAAAAAAAAAAAAAAAAAAAAAAAAAAAAAAAAAAAAAAAAAAAAAAAAAAAAAAAAAAAAAAAAAAAAAAAAAAAAAA
         ATOMIC WAVEFUNCTION(S)


 NUCLEAR CHARGE  8.0  SYMMETRY SPECIES            S    P
 N. ELECTRONS    8.0  NUMBER OF PRIMITIVE GTOS   14    6
                      NUMBER OF CONTRACTED GTOS   4    3
                      NUMBER OF CLOSED SHELLS     2    0
                      OPEN SHELL OCCUPATION       0    4

  ZNUC SCFIT  TOTAL HF ENERGY   KINETIC ENERGY   VIRIAL THEOREM ACCURACY
   8.0  13   -7.480020171E+01  7.461435896E+01 -2.002490710E+00  2.7E-06

 NUCLEAR CHARGE 14.0  SYMMETRY SPECIES            S    P
 N. ELECTRONS   14.0  NUMBER OF PRIMITIVE GTOS   20   12
                      NUMBER OF CONTRACTED GTOS   4    3
                      NUMBER OF CLOSED SHELLS     3    1
                      OPEN SHELL OCCUPATION       0    2

  ZNUC SCFIT  TOTAL HF ENERGY   KINETIC ENERGY   VIRIAL THEOREM ACCURACY
  14.0   8   -2.887469604E+02  2.898118971E+02 -1.996325421E+00  1.9E-06

 AAAAAAAAAAAAAAAAAAAAAAAAAAAAAAAAAAAAAAAAAAAAAAAAAAAAAAAAAAAAAAAAAAAAAAAAAAAAAAA

 CHARGE NORMALIZATION FACTOR   1.00000000
 TOTAL ATOMIC CHARGES:
   8.0000000   8.0000000   8.0000000   8.0000000   8.0000000   8.0000000
   8.0000000   8.0000000   8.0000000   8.0000000   8.0000000   8.0000000
   8.0000000   8.0000000   8.0000000   8.0000000   8.0000000   8.0000000
   8.0000000   8.0000000   8.0000000   8.0000000   8.0000000   8.0000000
   8.0000000   8.0000000   8.0000000   8.0000000   8.0000000   8.0000000
   8.0000000   8.0000000   8.0000000   8.0000000   8.0000000   8.0000000
   8.0000000   8.0000000   8.0000000   8.0000000   8.0000000   8.0000000
   8.0000000   8.0000000   8.0000000   8.0000000   8.0000000   8.0000000
   8.0000000   8.0000000   8.0000000   8.0000000   8.0000000   8.